<?xml version="1.0" encoding="UTF-8"?>

<!-- generated on 2025-02-16 16:54:57 by Eclipse SUMO sumo Version 1.22.0
<sumoConfiguration xmlns:xsi="http://www.w3.org/2001/XMLSchema-instance" xsi:noNamespaceSchemaLocation="http://sumo.dlr.de/xsd/sumoConfiguration.xsd">

    <input>
        <net-file value="map.net.xml"/>
        <route-files value="map.rou.xml"/>
    </input>

    <output>
        <fcd-output value="map.fcd.xml"/>
    </output>

    <time>
        <begin value="0"/>
        <end value="200"/>
    </time>

</sumoConfiguration>
-->

<fcd-export xmlns:xsi="http://www.w3.org/2001/XMLSchema-instance" xsi:noNamespaceSchemaLocation="http://sumo.dlr.de/xsd/fcd_file.xsd">
    <timestep time="0.00"/>
    <timestep time="1.00"/>
    <timestep time="2.00"/>
    <timestep time="3.00"/>
    <timestep time="4.00"/>
    <timestep time="5.00"/>
    <timestep time="6.00"/>
    <timestep time="7.00"/>
    <timestep time="8.00"/>
    <timestep time="9.00">
        <vehicle id="2" x="43809.63" y="479.35" angle="92.93" type="DEFAULT_VEHTYPE" speed="0.00" pos="5.10" lane="374528353#2_0" slope="0.00"/>
    </timestep>
    <timestep time="10.00">
        <vehicle id="2" x="43811.18" y="479.27" angle="92.93" type="DEFAULT_VEHTYPE" speed="1.55" pos="6.65" lane="374528353#2_0" slope="0.00"/>
    </timestep>
    <timestep time="11.00">
        <vehicle id="2" x="43814.37" y="479.11" angle="92.93" type="DEFAULT_VEHTYPE" speed="3.19" pos="9.84" lane="374528353#2_0" slope="0.00"/>
    </timestep>
    <timestep time="12.00">
        <vehicle id="2" x="43819.43" y="478.85" angle="92.93" type="DEFAULT_VEHTYPE" speed="5.06" pos="14.91" lane="374528353#2_0" slope="0.00"/>
    </timestep>
    <timestep time="13.00">
        <vehicle id="2" x="43826.00" y="478.51" angle="92.93" type="DEFAULT_VEHTYPE" speed="6.58" pos="21.48" lane="374528353#2_0" slope="0.00"/>
    </timestep>
    <timestep time="14.00">
        <vehicle id="2" x="43834.61" y="478.07" angle="92.93" type="DEFAULT_VEHTYPE" speed="8.62" pos="30.11" lane="374528353#2_0" slope="0.00"/>
    </timestep>
    <timestep time="15.00">
        <vehicle id="2" x="43845.33" y="477.52" angle="92.93" type="DEFAULT_VEHTYPE" speed="10.74" pos="40.85" lane="374528353#2_0" slope="0.00"/>
    </timestep>
    <timestep time="16.00">
        <vehicle id="2" x="43855.44" y="477.00" angle="92.93" type="DEFAULT_VEHTYPE" speed="10.12" pos="50.96" lane="374528353#2_0" slope="0.00"/>
    </timestep>
    <timestep time="17.00">
        <vehicle id="2" x="43862.30" y="476.65" angle="92.93" type="DEFAULT_VEHTYPE" speed="6.87" pos="57.83" lane="374528353#2_0" slope="0.00"/>
    </timestep>
    <timestep time="18.00">
        <vehicle id="2" x="43867.97" y="477.39" angle="80.55" type="DEFAULT_VEHTYPE" speed="5.97" pos="2.38" lane=":3779247823_3_0" slope="0.00"/>
    </timestep>
    <timestep time="19.00">
        <vehicle id="2" x="43869.12" y="482.20" angle="12.90" type="DEFAULT_VEHTYPE" speed="5.10" pos="7.48" lane=":3779247823_3_0" slope="0.00"/>
    </timestep>
    <timestep time="20.00">
        <vehicle id="2" x="43868.84" y="488.41" angle="356.92" type="DEFAULT_VEHTYPE" speed="6.22" pos="5.64" lane="220336641#5_1" slope="0.00"/>
    </timestep>
    <timestep time="21.00">
        <vehicle id="2" x="43868.37" y="497.12" angle="356.92" type="DEFAULT_VEHTYPE" speed="8.73" pos="14.37" lane="220336641#5_1" slope="0.00"/>
        <vehicle id="5" x="43599.02" y="588.18" angle="176.86" type="DEFAULT_VEHTYPE" speed="0.00" pos="5.10" lane="-374528351#3_0" slope="0.00"/>
    </timestep>
    <timestep time="22.00">
        <vehicle id="2" x="43867.78" y="507.98" angle="356.92" type="DEFAULT_VEHTYPE" speed="10.88" pos="25.24" lane="220336641#5_1" slope="0.00"/>
        <vehicle id="5" x="43599.12" y="586.43" angle="176.86" type="DEFAULT_VEHTYPE" speed="1.75" pos="6.85" lane="-374528351#3_0" slope="0.00"/>
    </timestep>
    <timestep time="23.00">
        <vehicle id="2" x="43867.12" y="520.22" angle="356.92" type="DEFAULT_VEHTYPE" speed="12.25" pos="37.50" lane="220336641#5_1" slope="0.00"/>
        <vehicle id="5" x="43599.33" y="582.46" angle="176.86" type="DEFAULT_VEHTYPE" speed="3.97" pos="10.82" lane="-374528351#3_0" slope="0.00"/>
    </timestep>
    <timestep time="24.00">
        <vehicle id="2" x="43866.33" y="534.83" angle="356.92" type="DEFAULT_VEHTYPE" speed="14.64" pos="52.13" lane="220336641#5_1" slope="0.00"/>
        <vehicle id="5" x="43599.64" y="576.82" angle="176.86" type="DEFAULT_VEHTYPE" speed="5.65" pos="16.47" lane="-374528351#3_0" slope="0.00"/>
    </timestep>
    <timestep time="25.00">
        <vehicle id="2" x="43865.40" y="550.98" angle="356.63" type="DEFAULT_VEHTYPE" speed="16.18" pos="68.32" lane="220336641#5_1" slope="0.00"/>
        <vehicle id="5" x="43600.07" y="569.12" angle="176.86" type="DEFAULT_VEHTYPE" speed="7.71" pos="24.18" lane="-374528351#3_0" slope="0.00"/>
        <vehicle id="6" x="44094.20" y="423.29" angle="160.05" type="DEFAULT_VEHTYPE" speed="0.00" pos="0.20" lane="-224056136#5_0" slope="0.00"/>
    </timestep>
    <timestep time="26.00">
        <vehicle id="2" x="43864.34" y="568.93" angle="356.63" type="DEFAULT_VEHTYPE" speed="17.98" pos="86.30" lane="220336641#5_1" slope="0.00"/>
        <vehicle id="5" x="43600.59" y="559.64" angle="176.86" type="DEFAULT_VEHTYPE" speed="9.50" pos="33.68" lane="-374528351#3_0" slope="0.00"/>
        <vehicle id="6" x="44093.41" y="421.01" angle="179.88" type="DEFAULT_VEHTYPE" speed="2.55" pos="2.55" lane=":8496571394_6_0" slope="0.00"/>
    </timestep>
    <timestep time="27.00">
        <vehicle id="2" x="43863.17" y="588.87" angle="356.63" type="DEFAULT_VEHTYPE" speed="19.98" pos="106.28" lane="220336641#5_1" slope="0.00"/>
        <vehicle id="5" x="43601.19" y="548.69" angle="176.86" type="DEFAULT_VEHTYPE" speed="10.96" pos="44.64" lane="-374528351#3_0" slope="0.00"/>
        <vehicle id="6" x="44089.02" y="419.64" angle="250.81" type="DEFAULT_VEHTYPE" speed="4.67" pos="0.69" lane=":2407344888_1_0" slope="0.00"/>
    </timestep>
    <timestep time="28.00">
        <vehicle id="2" x="43861.88" y="610.69" angle="356.63" type="DEFAULT_VEHTYPE" speed="21.86" pos="128.14" lane="220336641#5_1" slope="0.00"/>
        <vehicle id="5" x="43601.86" y="536.50" angle="176.86" type="DEFAULT_VEHTYPE" speed="12.21" pos="56.85" lane="-374528351#3_0" slope="0.00"/>
        <vehicle id="6" x="44082.35" y="421.13" angle="287.06" type="DEFAULT_VEHTYPE" speed="7.00" pos="7.68" lane=":2407344888_1_0" slope="0.00"/>
    </timestep>
    <timestep time="29.00">
        <vehicle id="2" x="43860.47" y="634.74" angle="356.63" type="DEFAULT_VEHTYPE" speed="24.10" pos="152.24" lane="220336641#5_1" slope="0.00"/>
        <vehicle id="5" x="43602.52" y="524.13" angle="176.92" type="DEFAULT_VEHTYPE" speed="12.39" pos="69.24" lane="-374528351#3_0" slope="0.00"/>
        <vehicle id="6" x="44073.52" y="417.83" angle="247.19" type="DEFAULT_VEHTYPE" speed="9.46" pos="2.28" lane=":5733816565_1_0" slope="0.00"/>
    </timestep>
    <timestep time="30.00">
        <vehicle id="2" x="43859.37" y="661.34" angle="357.73" type="DEFAULT_VEHTYPE" speed="26.62" pos="178.86" lane="220336641#5_1" slope="0.00"/>
        <vehicle id="5" x="43603.17" y="512.02" angle="176.92" type="DEFAULT_VEHTYPE" speed="12.12" pos="81.36" lane="-374528351#3_0" slope="0.00"/>
        <vehicle id="6" x="44062.73" y="414.04" angle="252.37" type="DEFAULT_VEHTYPE" speed="11.44" pos="13.72" lane=":5733816565_1_0" slope="0.00"/>
    </timestep>
    <timestep time="31.00">
        <vehicle id="2" x="43858.22" y="690.34" angle="357.73" type="DEFAULT_VEHTYPE" speed="29.03" pos="207.89" lane="220336641#5_1" slope="0.00"/>
        <vehicle id="5" x="43605.05" y="500.94" angle="168.71" type="DEFAULT_VEHTYPE" speed="11.26" pos="92.62" lane="-374528351#3_0" slope="0.00"/>
        <vehicle id="6" x="44050.11" y="410.45" angle="254.17" type="DEFAULT_VEHTYPE" speed="13.13" pos="5.76" lane=":8495827722_1_0" slope="0.00"/>
    </timestep>
    <timestep time="32.00">
        <vehicle id="2" x="43857.25" y="714.84" angle="357.73" type="DEFAULT_VEHTYPE" speed="24.53" pos="232.41" lane="220336641#5_1" slope="0.00"/>
        <vehicle id="5" x="43607.90" y="493.49" angle="152.78" type="DEFAULT_VEHTYPE" speed="8.17" pos="100.79" lane="-374528351#3_0" slope="0.00"/>
        <vehicle id="6" x="44035.23" y="406.23" angle="254.18" type="DEFAULT_VEHTYPE" speed="15.47" pos="6.82" lane="-914659526#2_0" slope="0.00"/>
    </timestep>
    <timestep time="33.00">
        <vehicle id="2" x="43856.46" y="734.85" angle="357.73" type="DEFAULT_VEHTYPE" speed="20.03" pos="252.44" lane="220336641#5_1" slope="0.00"/>
        <vehicle id="5" x="43609.05" y="488.77" angle="166.94" type="DEFAULT_VEHTYPE" speed="5.12" pos="5.01" lane=":3779247794_6_0" slope="0.00"/>
        <vehicle id="6" x="44018.33" y="401.44" angle="254.18" type="DEFAULT_VEHTYPE" speed="17.56" pos="24.39" lane="-914659526#2_0" slope="0.00"/>
    </timestep>
    <timestep time="34.00">
        <vehicle id="2" x="43855.84" y="750.36" angle="357.73" type="DEFAULT_VEHTYPE" speed="15.53" pos="267.97" lane="220336641#5_1" slope="0.00"/>
        <vehicle id="5" x="43605.39" y="485.59" angle="228.95" type="DEFAULT_VEHTYPE" speed="4.97" pos="0.93" lane="-1047615534_0" slope="0.00"/>
        <vehicle id="6" x="43999.90" y="396.12" angle="253.45" type="DEFAULT_VEHTYPE" speed="19.18" pos="7.57" lane=":5733816568_1_0" slope="0.00"/>
    </timestep>
    <timestep time="35.00">
        <vehicle id="2" x="43855.41" y="761.38" angle="357.73" type="DEFAULT_VEHTYPE" speed="11.03" pos="278.99" lane="220336641#5_1" slope="0.00"/>
        <vehicle id="5" x="43599.26" y="484.04" angle="259.58" type="DEFAULT_VEHTYPE" speed="6.51" pos="7.44" lane="-1047615534_0" slope="0.00"/>
        <vehicle id="6" x="43979.24" y="389.77" angle="252.67" type="DEFAULT_VEHTYPE" speed="21.61" pos="14.89" lane="-914659526#1_0" slope="0.00"/>
    </timestep>
    <timestep time="36.00">
        <vehicle id="2" x="43854.82" y="767.87" angle="354.24" type="DEFAULT_VEHTYPE" speed="6.53" pos="1.35" lane=":3779247679_2_0" slope="0.00"/>
        <vehicle id="5" x="43592.25" y="484.14" angle="270.88" type="DEFAULT_VEHTYPE" speed="7.01" pos="14.45" lane="-1047615534_0" slope="0.00"/>
        <vehicle id="6" x="43958.70" y="383.36" angle="252.67" type="DEFAULT_VEHTYPE" speed="21.52" pos="36.41" lane="-914659526#1_0" slope="0.00"/>
    </timestep>
    <timestep time="37.00">
        <vehicle id="2" x="43852.38" y="772.42" angle="329.96" type="DEFAULT_VEHTYPE" speed="5.45" pos="6.80" lane=":3779247679_2_0" slope="0.00"/>
        <vehicle id="5" x="43588.10" y="484.21" angle="270.88" type="DEFAULT_VEHTYPE" speed="4.15" pos="18.60" lane="-1047615534_0" slope="0.00"/>
        <vehicle id="6" x="43937.95" y="376.89" angle="252.67" type="DEFAULT_VEHTYPE" speed="21.74" pos="58.15" lane="-914659526#1_0" slope="0.00"/>
        <vehicle id="9" x="44064.46" y="538.46" angle="162.97" type="DEFAULT_VEHTYPE" speed="0.00" pos="5.10" lane="604219948#0_0" slope="0.00"/>
    </timestep>
    <timestep time="38.00">
        <vehicle id="2" x="43845.80" y="772.60" angle="269.13" type="DEFAULT_VEHTYPE" speed="6.61" pos="5.61" lane="374528335#0_0" slope="0.00"/>
        <vehicle id="5" x="43584.59" y="482.00" angle="240.54" type="DEFAULT_VEHTYPE" speed="4.61" pos="3.75" lane=":9633240528_0_0" slope="0.00"/>
        <vehicle id="6" x="43921.29" y="371.69" angle="252.67" type="DEFAULT_VEHTYPE" speed="17.45" pos="75.60" lane="-914659526#1_0" slope="0.00"/>
        <vehicle id="9" x="44065.12" y="536.31" angle="162.97" type="DEFAULT_VEHTYPE" speed="2.25" pos="7.35" lane="604219948#0_0" slope="0.00"/>
    </timestep>
    <timestep time="39.00">
        <vehicle id="2" x="43836.97" y="772.46" angle="269.13" type="DEFAULT_VEHTYPE" speed="8.83" pos="14.44" lane="374528335#0_0" slope="0.00"/>
        <vehicle id="5" x="43584.17" y="477.01" angle="184.71" type="DEFAULT_VEHTYPE" speed="5.04" pos="0.87" lane="31731787#1_0" slope="0.00"/>
        <vehicle id="6" x="43909.01" y="367.60" angle="249.92" type="DEFAULT_VEHTYPE" speed="12.95" pos="88.55" lane="-914659526#1_0" slope="0.00"/>
        <vehicle id="9" x="44066.33" y="532.38" angle="162.97" type="DEFAULT_VEHTYPE" speed="4.11" pos="11.46" lane="604219948#0_0" slope="0.00"/>
    </timestep>
    <timestep time="40.00">
        <vehicle id="2" x="43825.63" y="772.29" angle="269.13" type="DEFAULT_VEHTYPE" speed="11.34" pos="25.79" lane="374528335#0_0" slope="0.00"/>
        <vehicle id="5" x="43584.48" y="469.79" angle="177.54" type="DEFAULT_VEHTYPE" speed="7.22" pos="8.10" lane="31731787#1_0" slope="0.00"/>
        <vehicle id="6" x="43900.02" y="364.31" angle="249.92" type="DEFAULT_VEHTYPE" speed="9.57" pos="98.12" lane="-914659526#1_0" slope="0.00"/>
        <vehicle id="9" x="44068.10" y="526.59" angle="162.97" type="DEFAULT_VEHTYPE" speed="6.06" pos="17.52" lane="604219948#0_0" slope="0.00"/>
    </timestep>
    <timestep time="41.00">
        <vehicle id="10" x="44205.25" y="544.97" angle="252.25" type="DEFAULT_VEHTYPE" speed="0.00" pos="5.10" lane="604219942_0" slope="0.00"/>
        <vehicle id="2" x="43811.94" y="772.08" angle="269.13" type="DEFAULT_VEHTYPE" speed="13.68" pos="39.47" lane="374528335#0_0" slope="0.00"/>
        <vehicle id="5" x="43584.89" y="460.16" angle="177.54" type="DEFAULT_VEHTYPE" speed="9.64" pos="17.74" lane="31731787#1_0" slope="0.00"/>
        <vehicle id="6" x="43895.25" y="362.57" angle="249.92" type="DEFAULT_VEHTYPE" speed="5.07" pos="103.19" lane="-914659526#1_0" slope="0.00"/>
        <vehicle id="9" x="44070.64" y="518.32" angle="162.97" type="DEFAULT_VEHTYPE" speed="8.65" pos="26.17" lane="604219948#0_0" slope="0.00"/>
    </timestep>
    <timestep time="42.00">
        <vehicle id="10" x="44203.70" y="544.47" angle="252.25" type="DEFAULT_VEHTYPE" speed="1.63" pos="6.73" lane="604219942_0" slope="0.00"/>
        <vehicle id="2" x="43797.54" y="772.11" angle="271.99" type="DEFAULT_VEHTYPE" speed="14.41" pos="53.88" lane="374528335#0_0" slope="0.00"/>
        <vehicle id="5" x="43585.39" y="448.51" angle="177.54" type="DEFAULT_VEHTYPE" speed="11.66" pos="29.40" lane="31731787#1_0" slope="0.00"/>
        <vehicle id="6" x="43887.98" y="360.16" angle="252.35" type="DEFAULT_VEHTYPE" speed="7.67" pos="6.64" lane=":8553989724_0_0" slope="0.00"/>
        <vehicle id="9" x="44073.62" y="508.56" angle="162.97" type="DEFAULT_VEHTYPE" speed="10.20" pos="36.37" lane="604219948#0_0" slope="0.00"/>
    </timestep>
    <timestep time="43.00">
        <vehicle id="10" x="44200.59" y="543.47" angle="252.25" type="DEFAULT_VEHTYPE" speed="3.27" pos="10.00" lane="604219942_0" slope="0.00"/>
        <vehicle id="2" x="43783.09" y="772.63" angle="272.07" type="DEFAULT_VEHTYPE" speed="14.46" pos="7.09" lane=":3779248086_0_0" slope="0.00"/>
        <vehicle id="5" x="43585.98" y="434.85" angle="177.54" type="DEFAULT_VEHTYPE" speed="13.67" pos="43.07" lane="31731787#1_0" slope="0.00"/>
        <vehicle id="6" x="43882.71" y="359.16" angle="259.58" type="DEFAULT_VEHTYPE" speed="5.36" pos="12.00" lane=":8553989724_0_0" slope="0.00"/>
        <vehicle id="9" x="44077.02" y="497.47" angle="162.97" type="DEFAULT_VEHTYPE" speed="11.60" pos="47.97" lane="604219948#0_0" slope="0.00"/>
    </timestep>
    <timestep time="44.00">
        <vehicle id="10" x="44195.83" y="541.95" angle="252.25" type="DEFAULT_VEHTYPE" speed="5.00" pos="15.00" lane="604219942_0" slope="0.00"/>
        <vehicle id="2" x="43769.08" y="773.76" angle="279.38" type="DEFAULT_VEHTYPE" speed="14.10" pos="6.78" lane="374528335#1_0" slope="0.00"/>
        <vehicle id="5" x="43586.62" y="419.80" angle="177.54" type="DEFAULT_VEHTYPE" speed="15.06" pos="58.13" lane="31731787#1_0" slope="0.00"/>
        <vehicle id="6" x="43878.05" y="359.81" angle="277.56" type="DEFAULT_VEHTYPE" speed="4.90" pos="3.02" lane=":2407344887_0_0" slope="0.00"/>
        <vehicle id="9" x="44080.83" y="485.04" angle="162.97" type="DEFAULT_VEHTYPE" speed="13.00" pos="60.97" lane="604219948#0_0" slope="0.00"/>
    </timestep>
    <timestep time="45.00">
        <vehicle id="10" x="44189.38" y="539.89" angle="252.25" type="DEFAULT_VEHTYPE" speed="6.77" pos="21.76" lane="604219942_0" slope="0.00"/>
        <vehicle id="11" x="43894.10" y="651.89" angle="0.40" type="DEFAULT_VEHTYPE" speed="0.00" pos="5.10" lane="-604219973_0" slope="0.00"/>
        <vehicle id="2" x="43755.39" y="777.10" angle="283.69" type="DEFAULT_VEHTYPE" speed="14.10" pos="20.87" lane="374528335#1_0" slope="0.00"/>
        <vehicle id="5" x="43587.38" y="402.17" angle="177.54" type="DEFAULT_VEHTYPE" speed="17.64" pos="75.77" lane="31731787#1_0" slope="0.00"/>
        <vehicle id="6" x="43876.50" y="364.03" angle="337.40" type="DEFAULT_VEHTYPE" speed="4.64" pos="7.67" lane=":2407344887_0_0" slope="0.00"/>
        <vehicle id="9" x="44093.21" y="480.48" angle="86.42" type="DEFAULT_VEHTYPE" speed="14.56" pos="75.53" lane="604219948#0_0" slope="0.00"/>
    </timestep>
    <timestep time="46.00">
        <vehicle id="10" x="44181.06" y="537.22" angle="252.25" type="DEFAULT_VEHTYPE" speed="8.75" pos="30.51" lane="604219942_0" slope="0.00"/>
        <vehicle id="11" x="43894.11" y="654.10" angle="0.40" type="DEFAULT_VEHTYPE" speed="2.21" pos="7.31" lane="-604219973_0" slope="0.00"/>
        <vehicle id="2" x="43741.97" y="780.51" angle="285.26" type="DEFAULT_VEHTYPE" speed="13.85" pos="34.72" lane="374528335#1_0" slope="0.00"/>
        <vehicle id="5" x="43588.21" y="382.94" angle="177.54" type="DEFAULT_VEHTYPE" speed="19.25" pos="95.02" lane="31731787#1_0" slope="0.00"/>
        <vehicle id="6" x="43873.20" y="366.03" angle="320.89" type="DEFAULT_VEHTYPE" speed="2.12" pos="1.90" lane="220336641#2_1" slope="0.00"/>
        <vehicle id="9" x="44106.50" y="485.32" angle="69.98" type="DEFAULT_VEHTYPE" speed="14.15" pos="89.68" lane="604219948#0_0" slope="0.00"/>
    </timestep>
    <timestep time="47.00">
        <vehicle id="10" x="44171.42" y="534.14" angle="252.25" type="DEFAULT_VEHTYPE" speed="10.12" pos="40.63" lane="604219942_0" slope="0.00"/>
        <vehicle id="11" x="43894.14" y="658.61" angle="0.40" type="DEFAULT_VEHTYPE" speed="4.51" pos="11.81" lane="-604219973_0" slope="0.00"/>
        <vehicle id="2" x="43728.44" y="784.21" angle="285.29" type="DEFAULT_VEHTYPE" speed="14.02" pos="48.74" lane="374528335#1_0" slope="0.00"/>
        <vehicle id="5" x="43589.06" y="362.96" angle="177.54" type="DEFAULT_VEHTYPE" speed="20.01" pos="115.03" lane="31731787#1_0" slope="0.00"/>
        <vehicle id="6" x="43872.80" y="369.56" angle="354.79" type="DEFAULT_VEHTYPE" speed="3.56" pos="3.02" lane=":3779247796_2_0" slope="0.00"/>
        <vehicle id="9" x="44115.57" y="488.62" angle="69.98" type="DEFAULT_VEHTYPE" speed="9.65" pos="99.33" lane="604219948#0_0" slope="0.00"/>
    </timestep>
    <timestep time="48.00">
        <vehicle id="10" x="44166.02" y="532.41" angle="252.25" type="DEFAULT_VEHTYPE" speed="5.67" pos="46.30" lane="604219942_0" slope="0.00"/>
        <vehicle id="11" x="43894.10" y="665.52" angle="359.37" type="DEFAULT_VEHTYPE" speed="6.90" pos="4.43" lane=":2333267865_4_0" slope="0.00"/>
        <vehicle id="2" x="43715.15" y="789.37" angle="295.39" type="DEFAULT_VEHTYPE" speed="14.30" pos="11.57" lane=":3779247837_0_0" slope="0.00"/>
        <vehicle id="5" x="43589.29" y="342.65" angle="181.37" type="DEFAULT_VEHTYPE" speed="20.31" pos="4.80" lane="31731787#2_0" slope="0.00"/>
        <vehicle id="6" x="43868.94" y="372.66" angle="304.58" type="DEFAULT_VEHTYPE" speed="5.60" pos="0.80" lane="-374528362#3_0" slope="0.00"/>
        <vehicle id="9" x="44120.33" y="490.57" angle="67.65" type="DEFAULT_VEHTYPE" speed="5.15" pos="1.42" lane=":5733816559_4_0" slope="0.00"/>
    </timestep>
    <timestep time="49.00">
        <vehicle id="10" x="44159.64" y="529.79" angle="245.90" type="DEFAULT_VEHTYPE" speed="6.92" pos="3.94" lane=":5733816552_1_0" slope="0.00"/>
        <vehicle id="11" x="43893.98" y="674.31" angle="359.24" type="DEFAULT_VEHTYPE" speed="8.80" pos="13.22" lane=":2333267865_4_0" slope="0.00"/>
        <vehicle id="12" x="44258.60" y="466.16" angle="254.13" type="DEFAULT_VEHTYPE" speed="0.00" pos="5.10" lane="914659522_0" slope="0.00"/>
        <vehicle id="2" x="43702.10" y="795.30" angle="291.06" type="DEFAULT_VEHTYPE" speed="14.37" pos="10.64" lane="374528335#2_0" slope="0.00"/>
        <vehicle id="5" x="43588.79" y="322.92" angle="181.45" type="DEFAULT_VEHTYPE" speed="19.74" pos="24.54" lane="31731787#2_0" slope="0.00"/>
        <vehicle id="6" x="43861.68" y="372.22" angle="266.49" type="DEFAULT_VEHTYPE" speed="7.27" pos="8.07" lane="-374528362#3_0" slope="0.00"/>
        <vehicle id="9" x="44124.85" y="496.03" angle="28.85" type="DEFAULT_VEHTYPE" speed="7.49" pos="4.97" lane=":5733816559_10_0" slope="0.00"/>
    </timestep>
    <timestep time="50.00">
        <vehicle id="10" x="44157.19" y="522.56" angle="184.78" type="DEFAULT_VEHTYPE" speed="8.12" pos="12.05" lane=":5733816552_1_0" slope="0.00"/>
        <vehicle id="11" x="43893.62" y="685.44" angle="358.03" type="DEFAULT_VEHTYPE" speed="11.14" pos="10.06" lane="-224508677#0_0" slope="0.00"/>
        <vehicle id="12" x="44256.33" y="465.51" angle="254.13" type="DEFAULT_VEHTYPE" speed="2.36" pos="7.46" lane="914659522_0" slope="0.00"/>
        <vehicle id="2" x="43688.06" y="798.98" angle="284.69" type="DEFAULT_VEHTYPE" speed="14.51" pos="25.16" lane="374528335#2_0" slope="0.00"/>
        <vehicle id="5" x="43588.40" y="307.68" angle="181.45" type="DEFAULT_VEHTYPE" speed="15.24" pos="39.77" lane="31731787#2_0" slope="0.00"/>
        <vehicle id="6" x="43852.06" y="371.62" angle="266.49" type="DEFAULT_VEHTYPE" speed="9.63" pos="17.71" lane="-374528362#3_0" slope="0.00"/>
        <vehicle id="9" x="44123.57" y="503.38" angle="344.98" type="DEFAULT_VEHTYPE" speed="7.59" pos="2.42" lane="604219945_0" slope="0.00"/>
    </timestep>
    <timestep time="51.00">
        <vehicle id="10" x="44159.40" y="515.32" angle="160.64" type="DEFAULT_VEHTYPE" speed="7.58" pos="5.33" lane="-224506572#0_0" slope="0.00"/>
        <vehicle id="11" x="43893.27" y="695.78" angle="358.03" type="DEFAULT_VEHTYPE" speed="10.34" pos="20.40" lane="-224508677#0_0" slope="0.00"/>
        <vehicle id="12" x="44252.75" y="464.49" angle="254.13" type="DEFAULT_VEHTYPE" speed="3.72" pos="11.19" lane="914659522_0" slope="0.00"/>
        <vehicle id="2" x="43676.22" y="802.96" angle="289.89" type="DEFAULT_VEHTYPE" speed="12.50" pos="37.66" lane="374528335#2_0" slope="0.00"/>
        <vehicle id="5" x="43588.13" y="296.92" angle="181.45" type="DEFAULT_VEHTYPE" speed="10.76" pos="50.54" lane="31731787#2_0" slope="0.00"/>
        <vehicle id="6" x="43839.87" y="370.88" angle="266.49" type="DEFAULT_VEHTYPE" speed="12.21" pos="29.92" lane="-374528362#3_0" slope="0.00"/>
        <vehicle id="9" x="44120.36" y="512.60" angle="340.78" type="DEFAULT_VEHTYPE" speed="9.77" pos="12.19" lane="604219945_0" slope="0.00"/>
    </timestep>
    <timestep time="52.00">
        <vehicle id="10" x="44162.37" y="506.86" angle="160.64" type="DEFAULT_VEHTYPE" speed="8.97" pos="14.30" lane="-224506572#0_0" slope="0.00"/>
        <vehicle id="11" x="43892.89" y="706.76" angle="358.03" type="DEFAULT_VEHTYPE" speed="10.99" pos="31.39" lane="-224508677#0_0" slope="0.00"/>
        <vehicle id="12" x="44247.61" y="463.03" angle="254.13" type="DEFAULT_VEHTYPE" speed="5.34" pos="16.53" lane="914659522_0" slope="0.00"/>
        <vehicle id="2" x="43667.88" y="805.98" angle="289.89" type="DEFAULT_VEHTYPE" speed="8.87" pos="46.53" lane="374528335#2_0" slope="0.00"/>
        <vehicle id="5" x="43587.97" y="290.66" angle="181.45" type="DEFAULT_VEHTYPE" speed="6.26" pos="56.80" lane="31731787#2_0" slope="0.00"/>
        <vehicle id="6" x="43826.03" y="370.03" angle="266.49" type="DEFAULT_VEHTYPE" speed="13.87" pos="43.79" lane="-374528362#3_0" slope="0.00"/>
        <vehicle id="9" x="44116.34" y="524.13" angle="340.78" type="DEFAULT_VEHTYPE" speed="12.21" pos="24.40" lane="604219945_0" slope="0.00"/>
    </timestep>
    <timestep time="53.00">
        <vehicle id="10" x="44165.90" y="496.81" angle="160.64" type="DEFAULT_VEHTYPE" speed="10.65" pos="24.95" lane="-224506572#0_0" slope="0.00"/>
        <vehicle id="11" x="43892.53" y="717.34" angle="358.03" type="DEFAULT_VEHTYPE" speed="10.58" pos="41.97" lane="-224508677#0_0" slope="0.00"/>
        <vehicle id="12" x="44240.81" y="461.09" angle="254.13" type="DEFAULT_VEHTYPE" speed="7.07" pos="23.60" lane="914659522_0" slope="0.00"/>
        <vehicle id="13" x="44129.10" y="570.83" angle="254.14" type="DEFAULT_VEHTYPE" speed="0.00" pos="5.10" lane="-224508078#9_0" slope="0.00"/>
        <vehicle id="2" x="43663.04" y="807.53" angle="287.74" type="DEFAULT_VEHTYPE" speed="5.08" pos="51.61" lane="374528335#2_0" slope="0.00"/>
        <vehicle id="5" x="43588.88" y="285.71" angle="169.40" type="DEFAULT_VEHTYPE" speed="5.10" pos="5.10" lane=":3779247839_1_0" slope="0.00"/>
        <vehicle id="6" x="43812.16" y="369.18" angle="266.49" type="DEFAULT_VEHTYPE" speed="13.89" pos="57.68" lane="-374528362#3_0" slope="0.00"/>
        <vehicle id="9" x="44111.60" y="537.72" angle="340.78" type="DEFAULT_VEHTYPE" speed="14.38" pos="38.78" lane="604219945_0" slope="0.00"/>
    </timestep>
    <timestep time="54.00">
        <vehicle id="10" x="44170.00" y="485.14" angle="160.64" type="DEFAULT_VEHTYPE" speed="12.37" pos="37.32" lane="-224506572#0_0" slope="0.00"/>
        <vehicle id="11" x="43892.15" y="728.42" angle="358.03" type="DEFAULT_VEHTYPE" speed="11.09" pos="53.06" lane="-224508677#0_0" slope="0.00"/>
        <vehicle id="12" x="44232.37" y="458.58" angle="252.81" type="DEFAULT_VEHTYPE" speed="8.81" pos="32.41" lane="914659522_0" slope="0.00"/>
        <vehicle id="13" x="44126.70" y="570.15" angle="254.14" type="DEFAULT_VEHTYPE" speed="2.49" pos="7.59" lane="-224508078#9_0" slope="0.00"/>
        <vehicle id="2" x="43656.56" y="808.33" angle="274.51" type="DEFAULT_VEHTYPE" speed="6.60" pos="4.90" lane=":3779247735_4_0" slope="0.00"/>
        <vehicle id="5" x="43593.04" y="284.55" angle="108.81" type="DEFAULT_VEHTYPE" speed="4.62" pos="1.68" lane="374528350#0_0" slope="0.00"/>
        <vehicle id="6" x="43799.36" y="368.39" angle="266.49" type="DEFAULT_VEHTYPE" speed="12.83" pos="70.51" lane="-374528362#3_0" slope="0.00"/>
        <vehicle id="9" x="44108.35" y="547.05" angle="340.78" type="DEFAULT_VEHTYPE" speed="9.88" pos="48.67" lane="604219945_0" slope="0.00"/>
    </timestep>
    <timestep time="55.00">
        <vehicle id="10" x="44173.65" y="474.75" angle="160.64" type="DEFAULT_VEHTYPE" speed="11.01" pos="48.33" lane="-224506572#0_0" slope="0.00"/>
        <vehicle id="11" x="43891.76" y="739.74" angle="358.03" type="DEFAULT_VEHTYPE" speed="11.32" pos="64.39" lane="-224508677#0_0" slope="0.00"/>
        <vehicle id="12" x="44221.85" y="455.12" angle="251.79" type="DEFAULT_VEHTYPE" speed="11.08" pos="43.48" lane="914659522_0" slope="0.00"/>
        <vehicle id="13" x="44122.51" y="568.95" angle="254.13" type="DEFAULT_VEHTYPE" speed="4.36" pos="4.19" lane=":5733816579_1_0" slope="0.00"/>
        <vehicle id="2" x="43652.02" y="803.55" angle="211.91" type="DEFAULT_VEHTYPE" speed="7.16" pos="12.06" lane=":3779247735_4_0" slope="0.00"/>
        <vehicle id="5" x="43599.82" y="285.02" angle="85.99" type="DEFAULT_VEHTYPE" speed="6.80" pos="8.48" lane="374528350#0_0" slope="0.00"/>
        <vehicle id="6" x="43785.60" y="367.55" angle="266.49" type="DEFAULT_VEHTYPE" speed="13.78" pos="84.29" lane="-374528362#3_0" slope="0.00"/>
        <vehicle id="9" x="44106.58" y="552.14" angle="340.78" type="DEFAULT_VEHTYPE" speed="5.38" pos="54.05" lane="604219945_0" slope="0.00"/>
    </timestep>
    <timestep time="56.00">
        <vehicle id="10" x="44175.81" y="468.60" angle="160.64" type="DEFAULT_VEHTYPE" speed="6.51" pos="54.85" lane="-224506572#0_0" slope="0.00"/>
        <vehicle id="11" x="43891.44" y="749.14" angle="358.03" type="DEFAULT_VEHTYPE" speed="9.41" pos="73.80" lane="-224508677#0_0" slope="0.00"/>
        <vehicle id="12" x="44209.38" y="451.01" angle="251.79" type="DEFAULT_VEHTYPE" speed="13.13" pos="56.61" lane="914659522_0" slope="0.00"/>
        <vehicle id="13" x="44116.60" y="567.27" angle="254.13" type="DEFAULT_VEHTYPE" speed="6.15" pos="10.33" lane=":5733816579_1_0" slope="0.00"/>
        <vehicle id="2" x="43651.81" y="796.82" angle="180.36" type="DEFAULT_VEHTYPE" speed="6.75" pos="3.34" lane="-374528351#7_0" slope="0.00"/>
        <vehicle id="5" x="43609.00" y="285.67" angle="85.99" type="DEFAULT_VEHTYPE" speed="9.20" pos="17.68" lane="374528350#0_0" slope="0.00"/>
        <vehicle id="6" x="43771.67" y="366.69" angle="266.49" type="DEFAULT_VEHTYPE" speed="13.96" pos="98.25" lane="-374528362#3_0" slope="0.00"/>
        <vehicle id="9" x="44105.83" y="554.29" angle="340.78" type="DEFAULT_VEHTYPE" speed="2.28" pos="56.33" lane="604219945_0" slope="0.00"/>
    </timestep>
    <timestep time="57.00">
        <vehicle id="10" x="44177.52" y="462.83" angle="164.17" type="DEFAULT_VEHTYPE" speed="6.04" pos="1.78" lane=":8496571405_6_0" slope="0.00"/>
        <vehicle id="11" x="43891.26" y="754.18" angle="358.03" type="DEFAULT_VEHTYPE" speed="5.05" pos="78.84" lane="-224508677#0_0" slope="0.00"/>
        <vehicle id="12" x="44194.48" y="446.95" angle="254.94" type="DEFAULT_VEHTYPE" speed="15.45" pos="72.06" lane="914659522_0" slope="0.00"/>
        <vehicle id="13" x="44108.66" y="565.01" angle="254.07" type="DEFAULT_VEHTYPE" speed="8.25" pos="4.18" lane="-224508078#8_0" slope="0.00"/>
        <vehicle id="2" x="43652.16" y="788.32" angle="177.64" type="DEFAULT_VEHTYPE" speed="8.50" pos="11.84" lane="-374528351#7_0" slope="0.00"/>
        <vehicle id="5" x="43620.18" y="286.45" angle="85.99" type="DEFAULT_VEHTYPE" speed="11.21" pos="28.89" lane="374528350#0_0" slope="0.00"/>