<?xml version="1.0" encoding="UTF-8"?>

<!-- generated on 2025-06-06 00:43:33 by Eclipse SUMO sumo Version 1.23.1
<sumoConfiguration xmlns:xsi="http://www.w3.org/2001/XMLSchema-instance" xsi:noNamespaceSchemaLocation="http://sumo.dlr.de/xsd/sumoConfiguration.xsd">

    <input>
        <net-file value="map.net.xml"/>
        <route-files value="map.rou.xml"/>
    </input>

    <output>
        <fcd-output value="map.fcd.xml"/>
    </output>

    <time>
        <begin value="0"/>
        <end value="600"/>
    </time>

</sumoConfiguration>
-->

<fcd-export xmlns:xsi="http://www.w3.org/2001/XMLSchema-instance" xsi:noNamespaceSchemaLocation="http://sumo.dlr.de/xsd/fcd_file.xsd">
    <timestep time="0.00">
        <vehicle id="0" x="3863.02" y="1851.55" angle="185.48" type="DEFAULT_VEHTYPE" speed="0.00" pos="5.10" lane="4316293#5_0" slope="0.00"/>
    </timestep>
    <timestep time="1.00">
        <vehicle id="0" x="3862.90" y="1850.24" angle="185.48" type="DEFAULT_VEHTYPE" speed="1.32" pos="6.42" lane="4316293#5_0" slope="0.00"/>
    </timestep>
    <timestep time="2.00">
        <vehicle id="0" x="3862.59" y="1847.05" angle="185.48" type="DEFAULT_VEHTYPE" speed="3.20" pos="9.62" lane="4316293#5_0" slope="0.00"/>
    </timestep>
    <timestep time="3.00">
        <vehicle id="0" x="3862.09" y="1841.85" angle="185.48" type="DEFAULT_VEHTYPE" speed="5.22" pos="14.84" lane="4316293#5_0" slope="0.00"/>
        <vehicle id="2" x="3958.17" y="1986.75" angle="116.77" type="DEFAULT_VEHTYPE" speed="0.00" pos="5.10" lane="478136565#1_0" slope="0.00"/>
    </timestep>
    <timestep time="4.00">
        <vehicle id="0" x="3861.43" y="1834.98" angle="185.48" type="DEFAULT_VEHTYPE" speed="6.90" pos="21.74" lane="4316293#5_0" slope="0.00"/>
        <vehicle id="2" x="3959.42" y="1986.12" angle="116.72" type="DEFAULT_VEHTYPE" speed="1.40" pos="0.10" lane=":4713952026_7_0" slope="0.00"/>
    </timestep>
    <timestep time="5.00">
        <vehicle id="0" x="3860.61" y="1825.83" angle="184.91" type="DEFAULT_VEHTYPE" speed="9.19" pos="2.56" lane=":864665161_1_0" slope="0.00"/>
        <vehicle id="2" x="3962.26" y="1984.82" angle="115.35" type="DEFAULT_VEHTYPE" speed="3.13" pos="3.23" lane=":4713952026_7_0" slope="0.00"/>
        <vehicle id="4" x="3723.89" y="1382.38" angle="4.87" type="DEFAULT_VEHTYPE" speed="0.00" pos="5.10" lane="176164233#9_0" slope="0.00"/>
    </timestep>
    <timestep time="6.00">
        <vehicle id="0" x="3859.71" y="1814.15" angle="184.36" type="DEFAULT_VEHTYPE" speed="11.71" pos="14.27" lane=":864665161_1_0" slope="0.00"/>
        <vehicle id="2" x="3966.81" y="1984.17" angle="99.23" type="DEFAULT_VEHTYPE" speed="4.63" pos="7.86" lane=":4713952026_7_0" slope="0.00"/>
        <vehicle id="4" x="3724.03" y="1384.01" angle="4.87" type="DEFAULT_VEHTYPE" speed="1.63" pos="6.73" lane="176164233#9_0" slope="0.00"/>
        <vehicle id="5" x="3978.87" y="1173.27" angle="198.29" type="DEFAULT_VEHTYPE" speed="0.00" pos="5.10" lane="-491385092#4_0" slope="0.00"/>
    </timestep>
    <timestep time="7.00">
        <vehicle id="0" x="3858.95" y="1800.83" angle="183.30" type="DEFAULT_VEHTYPE" speed="13.34" pos="13.28" lane="4316293#6_0" slope="0.00"/>
        <vehicle id="2" x="3972.52" y="1985.25" angle="78.63" type="DEFAULT_VEHTYPE" speed="5.81" pos="2.37" lane="478136565#2_0" slope="0.00"/>
        <vehicle id="4" x="3724.31" y="1387.26" angle="4.87" type="DEFAULT_VEHTYPE" speed="3.27" pos="10.00" lane="176164233#9_0" slope="0.00"/>
        <vehicle id="5" x="3978.14" y="1171.06" angle="198.29" type="DEFAULT_VEHTYPE" speed="2.32" pos="7.42" lane="-491385092#4_0" slope="0.00"/>
        <vehicle id="6" x="3191.18" y="1292.90" angle="280.72" type="DEFAULT_VEHTYPE" speed="0.00" pos="5.10" lane="-191713406_0" slope="0.00"/>
    </timestep>
    <timestep time="8.00">
        <vehicle id="0" x="3858.15" y="1787.01" angle="183.30" type="DEFAULT_VEHTYPE" speed="13.84" pos="27.11" lane="4316293#6_0" slope="0.00"/>
        <vehicle id="2" x="3980.18" y="1986.44" angle="82.67" type="DEFAULT_VEHTYPE" speed="7.77" pos="6.33" lane=":4713952025_0_0" slope="0.00"/>
        <vehicle id="4" x="3724.73" y="1392.24" angle="4.87" type="DEFAULT_VEHTYPE" speed="5.00" pos="15.00" lane="176164233#9_0" slope="0.00"/>
        <vehicle id="5" x="3976.64" y="1166.52" angle="198.29" type="DEFAULT_VEHTYPE" speed="4.78" pos="12.21" lane="-491385092#4_0" slope="0.00"/>
        <vehicle id="6" x="3188.81" y="1293.35" angle="280.72" type="DEFAULT_VEHTYPE" speed="2.41" pos="7.51" lane="-191713406_0" slope="0.00"/>
        <vehicle id="7" x="3182.06" y="1887.38" angle="16.12" type="DEFAULT_VEHTYPE" speed="0.00" pos="5.10" lane="4316765#2_0" slope="0.00"/>
    </timestep>
    <timestep time="9.00">
        <vehicle id="0" x="3857.49" y="1772.39" angle="182.52" type="DEFAULT_VEHTYPE" speed="14.65" pos="13.08" lane=":864665091_1_0" slope="0.00"/>
        <vehicle id="2" x="3989.48" y="1983.31" angle="122.68" type="DEFAULT_VEHTYPE" speed="10.16" pos="2.50" lane="181728253#2_0" slope="0.00"/>
        <vehicle id="4" x="3725.31" y="1398.99" angle="4.87" type="DEFAULT_VEHTYPE" speed="6.77" pos="21.76" lane="176164233#9_0" slope="0.00"/>
        <vehicle id="5" x="3977.49" y="1163.85" angle="176.89" type="DEFAULT_VEHTYPE" speed="3.08" pos="2.38" lane=":4835147399_2_0" slope="0.00"/>
        <vehicle id="6" x="3185.00" y="1294.07" angle="280.72" type="DEFAULT_VEHTYPE" speed="3.87" pos="11.39" lane="-191713406_0" slope="0.00"/>
        <vehicle id="7" x="3182.67" y="1889.50" angle="16.12" type="DEFAULT_VEHTYPE" speed="2.21" pos="7.31" lane="4316765#2_0" slope="0.00"/>
    </timestep>
    <timestep time="10.00">
        <vehicle id="0" x="3857.03" y="1758.17" angle="181.77" type="DEFAULT_VEHTYPE" speed="14.22" pos="12.94" lane="4316293#7_0" slope="0.00"/>
        <vehicle id="2" x="3999.22" y="1975.63" angle="128.26" type="DEFAULT_VEHTYPE" speed="12.41" pos="14.91" lane="181728253#2_0" slope="0.00"/>
        <vehicle id="4" x="3725.97" y="1406.75" angle="4.87" type="DEFAULT_VEHTYPE" speed="7.79" pos="29.56" lane="176164233#9_0" slope="0.00"/>
        <vehicle id="5" x="3979.72" y="1165.63" angle="85.57" type="DEFAULT_VEHTYPE" speed="3.10" pos="0.82" lane="491385092#4_0" slope="0.00"/>
        <vehicle id="6" x="3178.81" y="1295.24" angle="280.72" type="DEFAULT_VEHTYPE" speed="6.30" pos="17.69" lane="-191713406_0" slope="0.00"/>
        <vehicle id="7" x="3183.92" y="1893.83" angle="16.12" type="DEFAULT_VEHTYPE" speed="4.51" pos="11.81" lane="4316765#2_0" slope="0.00"/>
    </timestep>
    <timestep time="11.00">
        <vehicle id="0" x="3856.61" y="1744.67" angle="181.77" type="DEFAULT_VEHTYPE" speed="13.51" pos="26.45" lane="4316293#7_0" slope="0.00"/>
        <vehicle id="2" x="4008.87" y="1968.01" angle="128.26" type="DEFAULT_VEHTYPE" speed="12.30" pos="27.21" lane="181728253#2_0" slope="0.00"/>
        <vehicle id="4" x="3726.63" y="1414.54" angle="4.87" type="DEFAULT_VEHTYPE" speed="7.81" pos="37.37" lane="176164233#9_0" slope="0.00"/>
        <vehicle id="5" x="3981.14" y="1169.95" angle="18.31" type="DEFAULT_VEHTYPE" speed="4.54" pos="5.36" lane="491385092#4_0" slope="0.00"/>
        <vehicle id="6" x="3170.85" y="1296.75" angle="280.72" type="DEFAULT_VEHTYPE" speed="8.11" pos="25.79" lane="-191713406_0" slope="0.00"/>
        <vehicle id="7" x="3185.84" y="1900.47" angle="16.12" type="DEFAULT_VEHTYPE" speed="6.90" pos="18.72" lane="4316765#2_0" slope="0.00"/>
    </timestep>
    <timestep time="12.00">
        <vehicle id="0" x="3855.85" y="1730.89" angle="183.71" type="DEFAULT_VEHTYPE" speed="13.80" pos="10.09" lane=":864665232_1_0" slope="0.00"/>
        <vehicle id="2" x="4018.60" y="1960.34" angle="128.26" type="DEFAULT_VEHTYPE" speed="12.38" pos="39.59" lane="181728253#2_0" slope="0.00"/>
        <vehicle id="4" x="3727.27" y="1422.07" angle="4.87" type="DEFAULT_VEHTYPE" speed="7.56" pos="44.93" lane="176164233#9_0" slope="0.00"/>
        <vehicle id="5" x="3982.73" y="1174.73" angle="18.31" type="DEFAULT_VEHTYPE" speed="5.04" pos="10.40" lane="491385092#4_0" slope="0.00"/>
        <vehicle id="6" x="3163.21" y="1298.20" angle="280.72" type="DEFAULT_VEHTYPE" speed="7.77" pos="33.57" lane="-191713406_0" slope="0.00"/>
        <vehicle id="7" x="3188.22" y="1908.72" angle="16.12" type="DEFAULT_VEHTYPE" speed="8.59" pos="27.31" lane="4316765#2_0" slope="0.00"/>
    </timestep>
    <timestep time="13.00">
        <vehicle id="0" x="3854.62" y="1717.06" angle="185.71" type="DEFAULT_VEHTYPE" speed="13.89" pos="9.47" lane="4316293#8_0" slope="0.00"/>
        <vehicle id="2" x="4028.94" y="1952.44" angle="125.99" type="DEFAULT_VEHTYPE" speed="13.02" pos="52.61" lane="181728253#2_0" slope="0.00"/>
        <vehicle id="4" x="3727.88" y="1429.19" angle="4.87" type="DEFAULT_VEHTYPE" speed="7.14" pos="52.07" lane="176164233#9_0" slope="0.00"/>
        <vehicle id="5" x="3984.04" y="1182.09" angle="6.00" type="DEFAULT_VEHTYPE" speed="7.58" pos="5.09" lane=":4835147398_4_0" slope="0.00"/>
        <vehicle id="6" x="3155.14" y="1299.72" angle="280.72" type="DEFAULT_VEHTYPE" speed="8.21" pos="41.78" lane="-191713406_0" slope="0.00"/>
        <vehicle id="7" x="3191.08" y="1918.69" angle="15.82" type="DEFAULT_VEHTYPE" speed="10.31" pos="2.32" lane=":2203911729_1_0" slope="0.00"/>
    </timestep>
    <timestep time="14.00">
        <vehicle id="0" x="3853.07" y="1703.03" angle="187.36" type="DEFAULT_VEHTYPE" speed="14.12" pos="23.59" lane="4316293#8_0" slope="0.00"/>
        <vehicle id="2" x="4037.48" y="1946.58" angle="124.42" type="DEFAULT_VEHTYPE" speed="10.36" pos="62.97" lane="181728253#2_0" slope="0.00"/>
        <vehicle id="4" x="3728.57" y="1437.32" angle="4.87" type="DEFAULT_VEHTYPE" speed="8.16" pos="60.23" lane="176164233#9_0" slope="0.00"/>
        <vehicle id="5" x="3978.96" y="1187.03" angle="299.70" type="DEFAULT_VEHTYPE" speed="7.68" pos="12.77" lane=":4835147398_4_0" slope="0.00"/>
        <vehicle id="6" x="3149.33" y="1301.13" angle="284.14" type="DEFAULT_VEHTYPE" speed="6.00" pos="2.10" lane=":2022987615_0_0" slope="0.00"/>
        <vehicle id="7" x="3193.29" y="1929.46" angle="10.31" type="DEFAULT_VEHTYPE" speed="10.74" pos="2.01" lane="4316765#3_0" slope="0.00"/>
    </timestep>
    <timestep time="15.00">
        <vehicle id="0" x="3851.11" y="1689.20" angle="188.08" type="DEFAULT_VEHTYPE" speed="13.97" pos="37.56" lane="4316293#8_0" slope="0.00"/>
        <vehicle id="2" x="4041.19" y="1941.08" angle="152.57" type="DEFAULT_VEHTYPE" speed="6.90" pos="5.85" lane=":864665049_2_0" slope="0.00"/>
        <vehicle id="4" x="3729.27" y="1445.53" angle="4.87" type="DEFAULT_VEHTYPE" speed="8.24" pos="68.48" lane="176164233#9_0" slope="0.00"/>
        <vehicle id="5" x="3971.66" y="1188.10" angle="275.80" type="DEFAULT_VEHTYPE" speed="7.39" pos="5.07" lane="-491385089#1_0" slope="0.00"/>
        <vehicle id="6" x="3146.83" y="1305.76" angle="336.23" type="DEFAULT_VEHTYPE" speed="5.70" pos="7.80" lane=":2022987615_0_0" slope="0.00"/>
        <vehicle id="7" x="3195.16" y="1939.64" angle="10.41" type="DEFAULT_VEHTYPE" speed="10.26" pos="12.27" lane="4316765#3_0" slope="0.00"/>
    </timestep>
    <timestep time="16.00">
        <vehicle id="0" x="3849.04" y="1674.67" angle="188.08" type="DEFAULT_VEHTYPE" speed="14.67" pos="52.23" lane="4316293#8_0" slope="0.00"/>
        <vehicle id="2" x="4040.70" y="1933.95" angle="187.87" type="DEFAULT_VEHTYPE" speed="7.20" pos="1.52" lane="-72859070#3_0" slope="0.00"/>
        <vehicle id="4" x="3729.88" y="1452.67" angle="4.87" type="DEFAULT_VEHTYPE" speed="7.16" pos="75.64" lane="176164233#9_0" slope="0.00"/>
        <vehicle id="5" x="3964.59" y="1188.82" angle="275.80" type="DEFAULT_VEHTYPE" speed="7.11" pos="12.19" lane="-491385089#1_0" slope="0.00"/>
        <vehicle id="6" x="3148.00" y="1312.07" angle="12.20" type="DEFAULT_VEHTYPE" speed="6.44" pos="5.09" lane="576561276#1_0" slope="0.00"/>
        <vehicle id="7" x="3197.33" y="1950.98" angle="10.84" type="DEFAULT_VEHTYPE" speed="11.44" pos="23.71" lane="4316765#3_0" slope="0.00"/>
    </timestep>
    <timestep time="17.00">
        <vehicle id="0" x="3847.15" y="1661.27" angle="187.92" type="DEFAULT_VEHTYPE" speed="13.54" pos="1.00" lane=":8296713832_1_0" slope="0.00"/>
        <vehicle id="2" x="4039.28" y="1926.74" angle="191.17" type="DEFAULT_VEHTYPE" speed="7.34" pos="8.87" lane="-72859070#3_0" slope="0.00"/>
        <vehicle id="4" x="3730.54" y="1460.47" angle="4.87" type="DEFAULT_VEHTYPE" speed="7.83" pos="83.47" lane="176164233#9_0" slope="0.00"/>
        <vehicle id="5" x="3958.63" y="1193.10" angle="317.79" type="DEFAULT_VEHTYPE" speed="7.76" pos="7.27" lane=":2028084167_0_0" slope="0.00"/>
        <vehicle id="6" x="3149.97" y="1319.83" angle="15.36" type="DEFAULT_VEHTYPE" speed="8.02" pos="5.30" lane=":1923580991_1_0" slope="0.00"/>
        <vehicle id="7" x="3199.45" y="1962.08" angle="10.84" type="DEFAULT_VEHTYPE" speed="11.21" pos="34.92" lane="4316765#3_0" slope="0.00"/>
    </timestep>
    <timestep time="18.00">
        <vehicle id="0" x="3845.35" y="1647.11" angle="187.17" type="DEFAULT_VEHTYPE" speed="14.27" pos="0.59" lane="892676285_0" slope="0.00"/>
        <vehicle id="2" x="4037.93" y="1919.89" angle="191.17" type="DEFAULT_VEHTYPE" speed="6.98" pos="15.85" lane="-72859070#3_0" slope="0.00"/>
        <vehicle id="4" x="3731.22" y="1468.40" angle="4.87" type="DEFAULT_VEHTYPE" speed="7.95" pos="91.42" lane="176164233#9_0" slope="0.00"/>
        <vehicle id="5" x="3957.08" y="1200.54" angle="350.15" type="DEFAULT_VEHTYPE" speed="7.61" pos="4.51" lane="192251093#0_0" slope="0.00"/>
        <vehicle id="6" x="3152.68" y="1329.60" angle="15.62" type="DEFAULT_VEHTYPE" speed="10.14" pos="1.94" lane="576561276#2_0" slope="0.00"/>
        <vehicle id="7" x="3201.21" y="1972.76" angle="7.60" type="DEFAULT_VEHTYPE" speed="10.73" pos="45.66" lane="4316765#3_0" slope="0.00"/>
    </timestep>
    <timestep time="19.00">
        <vehicle id="0" x="3843.86" y="1633.28" angle="185.76" type="DEFAULT_VEHTYPE" speed="13.91" pos="2.83" lane=":2131766629_0_0" slope="0.00"/>
        <vehicle id="2" x="4036.47" y="1912.49" angle="191.17" type="DEFAULT_VEHTYPE" speed="7.55" pos="23.40" lane="-72859070#3_0" slope="0.00"/>
        <vehicle id="4" x="3731.87" y="1475.99" angle="4.87" type="DEFAULT_VEHTYPE" speed="7.62" pos="99.04" lane="176164233#9_0" slope="0.00"/>
        <vehicle id="5" x="3955.72" y="1208.87" angle="350.73" type="DEFAULT_VEHTYPE" speed="8.44" pos="12.95" lane="192251093#0_0" slope="0.00"/>
        <vehicle id="6" x="3156.75" y="1341.28" angle="23.87" type="DEFAULT_VEHTYPE" speed="12.41" pos="0.10" lane=":1923581035_0_0" slope="0.00"/>
        <vehicle id="7" x="3202.40" y="1983.97" angle="6.09" type="DEFAULT_VEHTYPE" speed="11.18" pos="56.84" lane="4316765#3_0" slope="0.00"/>
    </timestep>
    <timestep time="20.00">
        <vehicle id="0" x="3842.73" y="1619.48" angle="184.15" type="DEFAULT_VEHTYPE" speed="13.84" pos="7.20" lane="892676282#0_0" slope="0.00"/>
        <vehicle id="2" x="4034.96" y="1904.85" angle="191.17" type="DEFAULT_VEHTYPE" speed="7.79" pos="31.19" lane="-72859070#3_0" slope="0.00"/>
        <vehicle id="4" x="3732.48" y="1483.24" angle="4.87" type="DEFAULT_VEHTYPE" speed="7.28" pos="106.32" lane="176164233#9_0" slope="0.00"/>
        <vehicle id="5" x="3954.48" y="1216.49" angle="350.73" type="DEFAULT_VEHTYPE" speed="7.72" pos="20.67" lane="192251093#0_0" slope="0.00"/>
        <vehicle id="6" x="3160.91" y="1347.98" angle="34.06" type="DEFAULT_VEHTYPE" speed="7.91" pos="1.76" lane="576561276#3_0" slope="0.00"/>
        <vehicle id="7" x="3203.64" y="1995.53" angle="6.09" type="DEFAULT_VEHTYPE" speed="11.53" pos="68.37" lane="4316765#3_0" slope="0.00"/>
    </timestep>
    <timestep time="21.00">
        <vehicle id="0" x="3841.71" y="1605.40" angle="184.15" type="DEFAULT_VEHTYPE" speed="14.12" pos="21.31" lane="892676282#0_0" slope="0.00"/>
        <vehicle id="2" x="4033.60" y="1897.94" angle="191.17" type="DEFAULT_VEHTYPE" speed="7.04" pos="38.22" lane="-72859070#3_0" slope="0.00"/>
        <vehicle id="4" x="3733.07" y="1490.18" angle="4.87" type="DEFAULT_VEHTYPE" speed="6.97" pos="113.28" lane="176164233#9_0" slope="0.00"/>
        <vehicle id="5" x="3953.19" y="1224.40" angle="350.73" type="DEFAULT_VEHTYPE" speed="8.02" pos="28.68" lane="192251093#0_0" slope="0.00"/>
        <vehicle id="6" x="3167.43" y="1355.15" angle="48.80" type="DEFAULT_VEHTYPE" speed="9.79" pos="5.67" lane=":1923581020_1_0" slope="0.00"/>
        <vehicle id="7" x="3204.42" y="2006.86" angle="2.70" type="DEFAULT_VEHTYPE" speed="11.26" pos="79.63" lane="4316765#3_0" slope="0.00"/>
    </timestep>
    <timestep time="22.00">
        <vehicle id="0" x="3840.72" y="1591.88" angle="184.15" type="DEFAULT_VEHTYPE" speed="13.56" pos="34.87" lane="892676282#0_0" slope="0.00"/>
        <vehicle id="2" x="4032.16" y="1890.67" angle="191.17" type="DEFAULT_VEHTYPE" speed="7.42" pos="45.64" lane="-72859070#3_0" slope="0.00"/>
        <vehicle id="4" x="3734.10" y="1495.63" angle="11.30" type="DEFAULT_VEHTYPE" speed="5.59" pos="2.93" lane=":2203911333_0_0" slope="0.00"/>
        <vehicle id="5" x="3952.07" y="1232.07" angle="351.69" type="DEFAULT_VEHTYPE" speed="7.75" pos="7.69" lane=":2028084153_0_0" slope="0.00"/>
        <vehicle id="6" x="3175.68" y="1361.05" angle="50.58" type="DEFAULT_VEHTYPE" speed="10.19" pos="2.34" lane="769643032#6_0" slope="0.00"/>
        <vehicle id="7" x="3204.94" y="2017.97" angle="2.70" type="DEFAULT_VEHTYPE" speed="11.03" pos="90.66" lane="4316765#3_0" slope="0.00"/>
    </timestep>
    <timestep time="23.00">
        <vehicle id="0" x="3841.95" y="1577.45" angle="171.98" type="DEFAULT_VEHTYPE" speed="14.55" pos="49.43" lane="892676282#0_0" slope="0.00"/>
        <vehicle id="2" x="4030.83" y="1883.91" angle="191.17" type="DEFAULT_VEHTYPE" speed="6.88" pos="52.52" lane="-72859070#3_0" slope="0.00"/>
        <vehicle id="21" x="3952.02" y="1821.23" angle="8.33" type="DEFAULT_VEHTYPE" speed="0.00" pos="0.20" lane="-583986602#1_0" slope="0.00"/>
        <vehicle id="4" x="3739.51" y="1498.31" angle="72.28" type="DEFAULT_VEHTYPE" speed="6.43" pos="0.66" lane="884218503#2_0" slope="0.00"/>
        <vehicle id="5" x="3950.94" y="1240.32" angle="352.32" type="DEFAULT_VEHTYPE" speed="8.33" pos="6.54" lane="192251093#1_0" slope="0.00"/>
        <vehicle id="6" x="3180.94" y="1368.85" angle="27.23" type="DEFAULT_VEHTYPE" speed="10.49" pos="1.21" lane=":7184218691_1_0" slope="0.00"/>
        <vehicle id="7" x="3205.45" y="2028.61" angle="2.70" type="DEFAULT_VEHTYPE" speed="10.56" pos="101.22" lane="4316765#3_0" slope="0.00"/>
    </timestep>
    <timestep time="24.00">
        <vehicle id="0" x="3843.92" y="1563.46" angle="171.98" type="DEFAULT_VEHTYPE" speed="14.13" pos="63.55" lane="892676282#0_0" slope="0.00"/>
        <vehicle id="2" x="4029.55" y="1877.45" angle="191.17" type="DEFAULT_VEHTYPE" speed="6.59" pos="59.12" lane="-72859070#3_0" slope="0.00"/>
        <vehicle id="21" x="3951.38" y="1822.50" angle="358.49" type="DEFAULT_VEHTYPE" speed="1.43" pos="1.43" lane=":7551639187_5_0" slope="0.00"/>
        <vehicle id="22" x="3754.59" y="1546.17" angle="5.25" type="DEFAULT_VEHTYPE" speed="0.00" pos="5.10" lane="-204881558#12_0" slope="0.00"/>
        <vehicle id="4" x="3747.37" y="1498.40" angle="89.34" type="DEFAULT_VEHTYPE" speed="7.86" pos="8.52" lane="884218503#2_0" slope="0.00"/>
        <vehicle id="5" x="3949.85" y="1248.38" angle="352.32" type="DEFAULT_VEHTYPE" speed="8.14" pos="14.68" lane="192251093#1_0" slope="0.00"/>
        <vehicle id="6" x="3181.36" y="1379.10" angle="354.43" type="DEFAULT_VEHTYPE" speed="10.40" pos="3.58" lane=":7249244568_1_0" slope="0.00"/>
        <vehicle id="7" x="3205.94" y="2039.02" angle="2.70" type="DEFAULT_VEHTYPE" speed="10.33" pos="111.55" lane="4316765#3_0" slope="0.00"/>
    </timestep>
    <timestep time="25.00">
        <vehicle id="0" x="3845.21" y="1550.26" angle="178.57" type="DEFAULT_VEHTYPE" speed="13.32" pos="3.45" lane=":1921578803_0_0" slope="0.00"/>
        <vehicle id="2" x="4028.37" y="1871.49" angle="191.17" type="DEFAULT_VEHTYPE" speed="6.07" pos="65.19" lane="-72859070#3_0" slope="0.00"/>
        <vehicle id="21" x="3948.78" y="1821.18" angle="267.38" type="DEFAULT_VEHTYPE" speed="3.68" pos="0.24" lane=":5643709716_1_0" slope="0.00"/>
        <vehicle id="22" x="3754.79" y="1548.34" angle="5.25" type="DEFAULT_VEHTYPE" speed="2.18" pos="7.28" lane="-204881558#12_0" slope="0.00"/>
        <vehicle id="4" x="3757.84" y="1498.52" angle="89.34" type="DEFAULT_VEHTYPE" speed="10.46" pos="18.99" lane="884218503#2_0" slope="0.00"/>
        <vehicle id="5" x="3948.74" y="1256.61" angle="352.31" type="DEFAULT_VEHTYPE" speed="8.30" pos="2.46" lane=":4835147393_4_0" slope="0.00"/>
        <vehicle id="6" x="3178.53" y="1389.63" angle="349.92" type="DEFAULT_VEHTYPE" speed="10.95" pos="7.44" lane=":1923580850_0_0" slope="0.00"/>
        <vehicle id="7" x="3206.45" y="2049.84" angle="2.70" type="DEFAULT_VEHTYPE" speed="10.75" pos="122.30" lane="4316765#3_0" slope="0.00"/>
    </timestep>
    <timestep time="26.00">
        <vehicle id="0" x="3842.08" y="1542.02" angle="199.97" type="DEFAULT_VEHTYPE" speed="8.82" pos="4.29" lane="892676282#1_0" slope="0.00"/>
        <vehicle id="2" x="4027.11" y="1864.73" angle="190.45" type="DEFAULT_VEHTYPE" speed="6.88" pos="5.21" lane=":864665048_1_0" slope="0.00"/>
        <vehicle id="21" x="3947.95" y="1815.54" angle="188.41" type="DEFAULT_VEHTYPE" speed="5.70" pos="5.94" lane=":5643709716_1_0" slope="0.00"/>
        <vehicle id="22" x="3755.21" y="1552.95" angle="5.25" type="DEFAULT_VEHTYPE" speed="4.62" pos="11.90" lane="-204881558#12_0" slope="0.00"/>
        <vehicle id="4" x="3770.47" y="1498.66" angle="89.34" type="DEFAULT_VEHTYPE" speed="12.64" pos="31.62" lane="884218503#2_0" slope="0.00"/>
        <vehicle id="5" x="3947.69" y="1264.39" angle="352.35" type="DEFAULT_VEHTYPE" speed="7.84" pos="0.91" lane="192251093#2_0" slope="0.00"/>
        <vehicle id="6" x="3176.48" y="1401.48" angle="349.95" type="DEFAULT_VEHTYPE" speed="12.03" pos="9.95" lane="459910463#0_0" slope="0.00"/>
        <vehicle id="7" x="3206.96" y="2060.73" angle="2.70" type="DEFAULT_VEHTYPE" speed="10.81" pos="133.10" lane="4316765#3_0" slope="0.00"/>
    </timestep>
    <timestep time="27.00">
        <vehicle id="0" x="3838.48" y="1537.16" angle="220.04" type="DEFAULT_VEHTYPE" speed="6.22" pos="5.64" lane=":1921578857_0_0" slope="0.00"/>
        <vehicle id="2" x="4025.78" y="1857.55" angle="190.45" type="DEFAULT_VEHTYPE" speed="7.30" pos="12.50" lane=":864665048_1_0" slope="0.00"/>
        <vehicle id="21" x="3946.94" y="1808.08" angle="187.42" type="DEFAULT_VEHTYPE" speed="7.54" pos="1.51" lane=":5643709715_1_0" slope="0.00"/>
        <vehicle id="22" x="3755.83" y="1559.71" angle="5.25" type="DEFAULT_VEHTYPE" speed="6.80" pos="18.70" lane="-204881558#12_0" slope="0.00"/>
        <vehicle id="25" x="3847.72" y="1489.50" angle="158.45" type="DEFAULT_VEHTYPE" speed="0.00" pos="1.41" lane="140039129#0_0" slope="0.00"/>
        <vehicle id="4" x="3781.39" y="1498.79" angle="89.34" type="DEFAULT_VEHTYPE" speed="10.91" pos="42.54" lane="884218503#2_0" slope="0.00"/>
        <vehicle id="5" x="3946.83" y="1272.41" angle="353.92" type="DEFAULT_VEHTYPE" speed="8.07" pos="2.77" lane=":4835147390_0_0" slope="0.00"/>
        <vehicle id="6" x="3174.06" y="1415.15" angle="349.95" type="DEFAULT_VEHTYPE" speed="13.88" pos="23.83" lane="459910463#0_0" slope="0.00"/>
        <vehicle id="7" x="3207.45" y="2071.16" angle="2.70" type="DEFAULT_VEHTYPE" speed="10.35" pos="143.46" lane="4316765#3_0" slope="0.00"/>
    </timestep>
    <timestep time="28.00">
        <vehicle id="0" x="3832.23" y="1536.51" angle="267.07" type="DEFAULT_VEHTYPE" speed="6.34" pos="4.09" lane="884218508#2_0" slope="0.00"/>
        <vehicle id="2" x="4024.38" y="1849.88" angle="190.42" type="DEFAULT_VEHTYPE" speed="7.79" pos="6.81" lane=":864664949_0_0" slope="0.00"/>
        <vehicle id="21" x="3946.58" y="1799.66" angle="185.00" type="DEFAULT_VEHTYPE" speed="8.49" pos="0.54" lane="946205671#0_0" slope="0.00"/>
        <vehicle id="22" x="3756.40" y="1565.86" angle="5.25" type="DEFAULT_VEHTYPE" speed="6.18" pos="24.88" lane="-204881558#12_0" slope="0.00"/>
        <vehicle id="25" x="3848.09" y="1487.90" angle="164.24" type="DEFAULT_VEHTYPE" speed="1.67" pos="1.67" lane=":4834841319_1_0" slope="0.00"/>
        <vehicle id="4" x="3787.80" y="1498.81" angle="89.93" type="DEFAULT_VEHTYPE" speed="6.41" pos="0.37" lane=":1867194464_0_0" slope="0.00"/>
        <vehicle id="5" x="3946.01" y="1280.18" angle="353.95" type="DEFAULT_VEHTYPE" speed="7.81" pos="1.18" lane="192251093#3_0" slope="0.00"/>
        <vehicle id="6" x="3172.56" y="1429.23" angle="358.73" type="DEFAULT_VEHTYPE" speed="14.19" pos="11.32" lane=":1923581011_1_0" slope="0.00"/>
        <vehicle id="7" x="3207.99" y="2082.54" angle="2.70" type="DEFAULT_VEHTYPE" speed="11.29" pos="154.75" lane="4316765#3_0" slope="0.00"/>
    </timestep>
    <timestep time="29.00">
        <vehicle id="0" x="3823.67" y="1536.33" angle="268.79" type="DEFAULT_VEHTYPE" speed="8.56" pos="12.65" lane="884218508#2_0" slope="0.00"/>
        <vehicle id="2" x="4023.19" y="1843.45" angle="190.44" type="DEFAULT_VEHTYPE" speed="6.54" pos="0.13" lane="-72859070#1_0" slope="0.00"/>
        <vehicle id="21" x="3944.97" y="1793.07" angle="193.76" type="DEFAULT_VEHTYPE" speed="6.78" pos="7.32" lane="946205671#0_0" slope="0.00"/>
        <vehicle id="22" x="3757.02" y="1572.66" angle="5.25" type="DEFAULT_VEHTYPE" speed="6.82" pos="31.70" lane="-204881558#12_0" slope="0.00"/>
        <vehicle id="25" x="3848.87" y="1484.58" angle="166.85" type="DEFAULT_VEHTYPE" speed="3.46" pos="5.12" lane=":4834841319_1_0" slope="0.00"/>
        <vehicle id="4" x="3792.27" y="1496.42" angle="119.70" type="DEFAULT_VEHTYPE" speed="5.37" pos="5.73" lane=":1867194464_0_0" slope="0.00"/>
        <vehicle id="5" x="3945.18" y="1287.96" angle="353.96" type="DEFAULT_VEHTYPE" speed="7.83" pos="9.01" lane="192251093#3_0" slope="0.00"/>
        <vehicle id="6" x="3172.87" y="1442.91" angle="1.97" type="DEFAULT_VEHTYPE" speed="13.70" pos="13.41" lane="459910463#1_0" slope="0.00"/>
        <vehicle id="7" x="3208.50" y="2093.34" angle="2.70" type="DEFAULT_VEHTYPE" speed="10.72" pos="165.47" lane="4316765#3_0" slope="0.00"/>
    </timestep>
    <timestep time="30.00">
        <vehicle id="0" x="3812.61" y="1536.13" angle="269.01" type="DEFAULT_VEHTYPE" speed="11.07" pos="8.07" lane=":25922488_1_0" slope="0.00"/>
        <vehicle id="2" x="4021.74" y="1836.12" angle="191.23" type="DEFAULT_VEHTYPE" speed="7.48" pos="7.61" lane="-72859070#1_0" slope="0.00"/>
        <vehicle id="21" x="3943.03" y="1784.67" angle="192.47" type="DEFAULT_VEHTYPE" speed="8.61" pos="5.22" lane=":864664983_1_0" slope="0.00"/>
        <vehicle id="22" x="3757.66" y="1579.61" angle="5.25" type="DEFAULT_VEHTYPE" speed="6.98" pos="38.68" lane="-204881558#12_0" slope="0.00"/>
        <vehicle id="25" x="3849.82" y="1479.31" angle="170.06" type="DEFAULT_VEHTYPE" speed="5.43" pos="10.55" lane=":4834841319_1_0" slope="0.00"/>
        <vehicle id="28" x="3932.87" y="1919.35" angle="189.39" type="DEFAULT_VEHTYPE" speed="0.00" pos="4.10" lane="-478136564#1_0" slope="0.00"/>
        <vehicle id="4" x="3793.35" y="1490.07" angle="173.50" type="DEFAULT_VEHTYPE" speed="6.51" pos="3.62" lane="176164231#0_0" slope="0.00"/>
        <vehicle id="5" x="3945.08" y="1295.89" angle="2.45" type="DEFAULT_VEHTYPE" speed="7.95" pos="16.96" lane="192251093#3_0" slope="0.00"/>
        <vehicle id="6" x="3176.32" y="1455.73" angle="17.42" type="DEFAULT_VEHTYPE" speed="13.30" pos="3.41" lane=":7215530193_0_0" slope="0.00"/>
        <vehicle id="7" x="3208.95" y="2104.66" angle="2.21" type="DEFAULT_VEHTYPE" speed="11.23" pos="176.70" lane="4316765#3_0" slope="0.00"/>
    </timestep>
    <timestep time="31.00">
        <vehicle id="0" x="3800.04" y="1535.94" angle="269.26" type="DEFAULT_VEHTYPE" speed="12.57" pos="5.56" lane="884218508#3_0" slope="0.00"/>
        <vehicle id="2" x="4020.37" y="1829.21" angle="191.23" type="DEFAULT_VEHTYPE" speed="7.04" pos="14.65" lane="-72859070#1_0" slope="0.00"/>
        <vehicle id="21" x="3941.70" y="1776.52" angle="188.46" type="DEFAULT_VEHTYPE" speed="8.26" pos="13.49" lane=":864664983_1_0" slope="0.00"/>
        <vehicle id="22" x="3758.29" y="1586.46" angle="5.25" type="DEFAULT_VEHTYPE" speed="6.88" pos="45.56" lane="-204881558#12_0" slope="0.00"/>
        <vehicle id="25" x="3850.71" y="1472.23" angle="173.05" type="DEFAULT_VEHTYPE" speed="7.15" pos="6.00" lane="140039129#1_0" slope="0.00"/>
        <vehicle id="28" x="3932.65" y="1918.04" angle="189.39" type="DEFAULT_VEHTYPE" speed="1.33" pos="1.33" lane=":4713952018_1_0" slope="0.00"/>
        <vehicle id="4" x="3794.02" y="1481.08" angle="175.72" type="DEFAULT_VEHTYPE" speed="9.01" pos="12.64" lane="176164231#0_0" slope="0.00"/>
        <vehicle id="5" x="3945.50" y="1303.93" angle="2.98" type="DEFAULT_VEHTYPE" speed="8.04" pos="25.01" lane="192251093#3_0" slope="0.00"/>
        <vehicle id="6" x="3181.75" y="1467.61" angle="22.07" type="DEFAULT_VEHTYPE" speed="13.10" pos="10.47" lane="459910463#2_0" slope="0.00"/>
        <vehicle id="7" x="3209.36" y="2115.25" angle="2.21" type="DEFAULT_VEHTYPE" speed="10.51" pos="187.21" lane="4316765#3_0" slope="0.00"/>
    </timestep>
    <timestep time="32.00">
        <vehicle id="0" x="3786.03" y="1535.76" angle="269.26" type="DEFAULT_VEHTYPE" speed="14.02" pos="19.57" lane="884218508#3_0" slope="0.00"/>
        <vehicle id="2" x="4018.87" y="1821.65" angle="191.23" type="DEFAULT_VEHTYPE" speed="7.71" pos="22.36" lane="-72859070#1_0" slope="0.00"/>
        <vehicle id="21" x="3940.67" y="1768.09" angle="186.91" type="DEFAULT_VEHTYPE" speed="8.49" pos="7.96" lane="946205671#1_0" slope="0.00"/>