<?xml version="1.0" encoding="UTF-8"?>

<!-- generated on 2025-06-06 00:40:16 by Eclipse SUMO sumo Version 1.23.1
<sumoConfiguration xmlns:xsi="http://www.w3.org/2001/XMLSchema-instance" xsi:noNamespaceSchemaLocation="http://sumo.dlr.de/xsd/sumoConfiguration.xsd">

    <input>
        <net-file value="map.net.xml"/>
        <route-files value="map.rou.xml"/>
    </input>

    <output>
        <fcd-output value="map.fcd.xml"/>
    </output>

    <time>
        <begin value="0"/>
        <end value="600"/>
    </time>

</sumoConfiguration>
-->

<fcd-export xmlns:xsi="http://www.w3.org/2001/XMLSchema-instance" xsi:noNamespaceSchemaLocation="http://sumo.dlr.de/xsd/fcd_file.xsd">
    <timestep time="0.00"/>
    <timestep time="1.00"/>
    <timestep time="2.00"/>
    <timestep time="3.00"/>
    <timestep time="4.00"/>
    <timestep time="5.00">
        <vehicle id="2" x="6894.94" y="818.10" angle="253.47" type="DEFAULT_VEHTYPE" speed="0.00" pos="5.10" lane="485345409#1_0" slope="0.00"/>
    </timestep>
    <timestep time="6.00">
        <vehicle id="2" x="6893.00" y="817.52" angle="253.47" type="DEFAULT_VEHTYPE" speed="2.03" pos="7.13" lane="485345409#1_0" slope="0.00"/>
    </timestep>
    <timestep time="7.00">
        <vehicle id="2" x="6889.18" y="816.39" angle="253.47" type="DEFAULT_VEHTYPE" speed="3.98" pos="11.11" lane="485345409#1_0" slope="0.00"/>
    </timestep>
    <timestep time="8.00">
        <vehicle id="2" x="6882.90" y="814.52" angle="253.47" type="DEFAULT_VEHTYPE" speed="6.54" pos="17.66" lane="485345409#1_0" slope="0.00"/>
        <vehicle id="3" x="7059.55" y="895.93" angle="258.78" type="DEFAULT_VEHTYPE" speed="0.00" pos="5.10" lane="73033641#1_0" slope="0.00"/>
    </timestep>
    <timestep time="9.00">
        <vehicle id="2" x="6875.28" y="812.26" angle="253.47" type="DEFAULT_VEHTYPE" speed="7.96" pos="25.61" lane="485345409#1_0" slope="0.00"/>
        <vehicle id="3" x="7057.09" y="895.44" angle="258.78" type="DEFAULT_VEHTYPE" speed="2.51" pos="7.61" lane="73033641#1_0" slope="0.00"/>
    </timestep>
    <timestep time="10.00">
        <vehicle id="2" x="6867.94" y="810.08" angle="253.47" type="DEFAULT_VEHTYPE" speed="7.65" pos="33.27" lane="485345409#1_0" slope="0.00"/>
        <vehicle id="3" x="7052.55" y="894.54" angle="258.78" type="DEFAULT_VEHTYPE" speed="4.62" pos="12.23" lane="73033641#1_0" slope="0.00"/>
        <vehicle id="4" x="7196.36" y="1029.69" angle="268.27" type="DEFAULT_VEHTYPE" speed="0.00" pos="3.31" lane="193899237#8_0" slope="0.00"/>
    </timestep>
    <timestep time="11.00">
        <vehicle id="2" x="6860.36" y="807.83" angle="253.47" type="DEFAULT_VEHTYPE" speed="7.91" pos="41.18" lane="485345409#1_0" slope="0.00"/>
        <vehicle id="3" x="7046.70" y="893.38" angle="258.78" type="DEFAULT_VEHTYPE" speed="5.96" pos="0.92" lane=":4827187665_0_0" slope="0.00"/>
        <vehicle id="4" x="7193.81" y="1029.61" angle="268.24" type="DEFAULT_VEHTYPE" speed="2.55" pos="2.55" lane=":4824870059_0_0" slope="0.00"/>
    </timestep>
    <timestep time="12.00">
        <vehicle id="2" x="6852.79" y="805.59" angle="253.47" type="DEFAULT_VEHTYPE" speed="7.89" pos="49.07" lane="485345409#1_0" slope="0.00"/>
        <vehicle id="3" x="7038.91" y="891.84" angle="258.80" type="DEFAULT_VEHTYPE" speed="7.94" pos="8.87" lane=":4827187665_0_0" slope="0.00"/>
        <vehicle id="4" x="7188.94" y="1029.46" angle="268.20" type="DEFAULT_VEHTYPE" speed="4.87" pos="7.42" lane=":4824870059_0_0" slope="0.00"/>
        <vehicle id="5" x="6916.04" y="1472.91" angle="354.71" type="DEFAULT_VEHTYPE" speed="0.00" pos="3.18" lane="-506875003#8_0" slope="0.00"/>
    </timestep>
    <timestep time="13.00">
        <vehicle id="2" x="6845.49" y="803.42" angle="253.47" type="DEFAULT_VEHTYPE" speed="7.62" pos="56.69" lane="485345409#1_0" slope="0.00"/>
        <vehicle id="3" x="7029.58" y="889.98" angle="258.77" type="DEFAULT_VEHTYPE" speed="9.51" pos="8.96" lane="73033641#2_0" slope="0.00"/>
        <vehicle id="4" x="7181.61" y="1029.23" angle="268.25" type="DEFAULT_VEHTYPE" speed="7.33" pos="5.20" lane="193899237#9_0" slope="0.00"/>
        <vehicle id="5" x="6915.82" y="1475.31" angle="354.74" type="DEFAULT_VEHTYPE" speed="2.41" pos="2.41" lane=":4622288793_0_0" slope="0.00"/>
    </timestep>
    <timestep time="14.00">
        <vehicle id="2" x="6837.84" y="801.15" angle="253.47" type="DEFAULT_VEHTYPE" speed="7.98" pos="64.67" lane="485345409#1_0" slope="0.00"/>
        <vehicle id="3" x="7020.48" y="888.18" angle="258.80" type="DEFAULT_VEHTYPE" speed="9.28" pos="6.79" lane=":4827187667_0_0" slope="0.00"/>
        <vehicle id="4" x="7173.22" y="1028.98" angle="268.25" type="DEFAULT_VEHTYPE" speed="8.40" pos="13.59" lane="193899237#9_0" slope="0.00"/>
        <vehicle id="5" x="6915.43" y="1479.47" angle="354.70" type="DEFAULT_VEHTYPE" speed="4.18" pos="6.59" lane=":4622288793_0_0" slope="0.00"/>
    </timestep>
    <timestep time="15.00">
        <vehicle id="2" x="6832.86" y="799.67" angle="253.47" type="DEFAULT_VEHTYPE" speed="5.19" pos="69.86" lane="485345409#1_0" slope="0.00"/>
        <vehicle id="3" x="7011.39" y="886.38" angle="258.83" type="DEFAULT_VEHTYPE" speed="9.27" pos="6.64" lane="73033641#3_0" slope="0.00"/>
        <vehicle id="4" x="7164.87" y="1028.72" angle="268.25" type="DEFAULT_VEHTYPE" speed="8.35" pos="21.94" lane="193899237#9_0" slope="0.00"/>
        <vehicle id="5" x="6914.82" y="1486.10" angle="354.70" type="DEFAULT_VEHTYPE" speed="6.65" pos="13.25" lane=":4622288793_0_0" slope="0.00"/>
        <vehicle id="6" x="7185.00" y="1260.35" angle="199.29" type="DEFAULT_VEHTYPE" speed="0.00" pos="2.61" lane="-191537655#0_0" slope="0.00"/>
    </timestep>
    <timestep time="16.00">
        <vehicle id="2" x="6827.68" y="799.10" angle="264.36" type="DEFAULT_VEHTYPE" speed="5.32" pos="3.57" lane=":4781193241_0_0" slope="0.00"/>
        <vehicle id="3" x="7001.24" y="884.38" angle="258.81" type="DEFAULT_VEHTYPE" speed="10.35" pos="2.78" lane=":4827187669_0_0" slope="0.00"/>
        <vehicle id="4" x="7156.55" y="1028.47" angle="268.23" type="DEFAULT_VEHTYPE" speed="8.33" pos="30.27" lane="193899237#9_0" slope="0.00"/>
        <vehicle id="5" x="6914.03" y="1494.67" angle="354.73" type="DEFAULT_VEHTYPE" speed="8.61" pos="7.46" lane="-506875003#7_0" slope="0.00"/>
        <vehicle id="6" x="7183.98" y="1258.39" angle="203.00" type="DEFAULT_VEHTYPE" speed="2.21" pos="2.21" lane=":1854989209_0_0" slope="0.00"/>
    </timestep>
    <timestep time="17.00">
        <vehicle id="2" x="6824.69" y="804.29" angle="338.86" type="DEFAULT_VEHTYPE" speed="6.45" pos="0.97" lane="485345402#3_0" slope="0.00"/>
        <vehicle id="3" x="6992.17" y="882.58" angle="258.79" type="DEFAULT_VEHTYPE" speed="9.26" pos="2.62" lane="73033641#4_0" slope="0.00"/>
        <vehicle id="4" x="7151.91" y="1028.33" angle="268.33" type="DEFAULT_VEHTYPE" speed="4.63" pos="4.43" lane=":10989398913_0_0" slope="0.00"/>
        <vehicle id="5" x="6913.08" y="1504.87" angle="354.73" type="DEFAULT_VEHTYPE" speed="10.24" pos="6.59" lane=":411824451_0_0" slope="0.00"/>
        <vehicle id="6" x="7181.10" y="1256.61" angle="229.05" type="DEFAULT_VEHTYPE" speed="3.53" pos="5.74" lane=":1854989209_0_0" slope="0.00"/>
        <vehicle id="7" x="6665.51" y="1401.60" angle="162.52" type="DEFAULT_VEHTYPE" speed="0.00" pos="5.10" lane="448629483#0_0" slope="0.00"/>
    </timestep>
    <timestep time="18.00">
        <vehicle id="2" x="6823.62" y="812.80" angle="352.85" type="DEFAULT_VEHTYPE" speed="8.58" pos="9.55" lane="485345402#3_0" slope="0.00"/>
        <vehicle id="3" x="6982.32" y="880.63" angle="258.79" type="DEFAULT_VEHTYPE" speed="10.04" pos="12.66" lane="73033641#4_0" slope="0.00"/>
        <vehicle id="4" x="7147.10" y="1030.49" angle="296.79" type="DEFAULT_VEHTYPE" speed="5.58" pos="5.31" lane=":864985230_0_0" slope="0.00"/>
        <vehicle id="5" x="6911.93" y="1517.40" angle="354.72" type="DEFAULT_VEHTYPE" speed="12.58" pos="7.96" lane="-506875003#6_0" slope="0.00"/>
        <vehicle id="6" x="7175.51" y="1257.75" angle="285.16" type="DEFAULT_VEHTYPE" speed="5.79" pos="2.50" lane="892680233#5_0" slope="0.00"/>
        <vehicle id="7" x="6666.03" y="1399.96" angle="162.39" type="DEFAULT_VEHTYPE" speed="1.71" pos="6.81" lane="448629483#0_0" slope="0.00"/>
    </timestep>
    <timestep time="19.00">
        <vehicle id="2" x="6822.33" y="823.07" angle="352.85" type="DEFAULT_VEHTYPE" speed="10.34" pos="19.89" lane="485345402#3_0" slope="0.00"/>
        <vehicle id="3" x="6972.17" y="878.62" angle="258.79" type="DEFAULT_VEHTYPE" speed="10.34" pos="23.00" lane="73033641#4_0" slope="0.00"/>
        <vehicle id="4" x="7142.59" y="1036.18" angle="319.01" type="DEFAULT_VEHTYPE" speed="6.26" pos="3.26" lane="433013219#2_1" slope="0.00"/>
        <vehicle id="5" x="6910.56" y="1532.13" angle="354.69" type="DEFAULT_VEHTYPE" speed="14.80" pos="3.81" lane="-506875003#5_0" slope="0.00"/>
        <vehicle id="6" x="7168.41" y="1260.24" angle="289.35" type="DEFAULT_VEHTYPE" speed="7.52" pos="10.02" lane="892680233#5_0" slope="0.00"/>
        <vehicle id="7" x="6667.31" y="1395.92" angle="162.39" type="DEFAULT_VEHTYPE" speed="4.24" pos="11.05" lane="448629483#0_0" slope="0.00"/>
        <vehicle id="8" x="6919.28" y="1438.76" angle="354.55" type="DEFAULT_VEHTYPE" speed="0.00" pos="5.10" lane="-506875003#9_0" slope="0.00"/>
    </timestep>
    <timestep time="20.00">
        <vehicle id="2" x="6820.90" y="834.49" angle="352.85" type="DEFAULT_VEHTYPE" speed="11.51" pos="31.40" lane="485345402#3_0" slope="0.00"/>
        <vehicle id="3" x="6962.99" y="876.80" angle="258.79" type="DEFAULT_VEHTYPE" speed="9.36" pos="32.36" lane="73033641#4_0" slope="0.00"/>
        <vehicle id="4" x="7141.62" y="1044.81" angle="353.55" type="DEFAULT_VEHTYPE" speed="8.69" pos="11.94" lane="433013219#2_1" slope="0.00"/>
        <vehicle id="5" x="6909.28" y="1545.87" angle="354.69" type="DEFAULT_VEHTYPE" speed="13.79" pos="8.42" lane=":4622288789_0_0" slope="0.00"/>
        <vehicle id="6" x="7160.61" y="1261.69" angle="276.68" type="DEFAULT_VEHTYPE" speed="7.57" pos="1.30" lane="892680233#6_0" slope="0.00"/>
        <vehicle id="7" x="6669.20" y="1389.96" angle="162.39" type="DEFAULT_VEHTYPE" speed="6.26" pos="17.31" lane="448629483#0_0" slope="0.00"/>
        <vehicle id="8" x="6919.12" y="1440.38" angle="354.55" type="DEFAULT_VEHTYPE" speed="1.63" pos="6.73" lane="-506875003#9_0" slope="0.00"/>
    </timestep>
    <timestep time="21.00">
        <vehicle id="2" x="6819.43" y="846.15" angle="352.81" type="DEFAULT_VEHTYPE" speed="11.75" pos="7.40" lane=":4781193244_4_0" slope="0.00"/>
        <vehicle id="3" x="6958.02" y="875.81" angle="258.79" type="DEFAULT_VEHTYPE" speed="5.06" pos="37.43" lane="73033641#4_0" slope="0.00"/>
        <vehicle id="4" x="7140.40" y="1055.55" angle="353.55" type="DEFAULT_VEHTYPE" speed="10.81" pos="22.75" lane="433013219#2_1" slope="0.00"/>
        <vehicle id="5" x="6908.21" y="1557.42" angle="354.73" type="DEFAULT_VEHTYPE" speed="11.60" pos="10.62" lane="-506875003#4_0" slope="0.00"/>
        <vehicle id="6" x="7150.68" y="1262.36" angle="273.11" type="DEFAULT_VEHTYPE" speed="10.03" pos="4.67" lane=":1333387625_0_0" slope="0.00"/>
        <vehicle id="7" x="6670.90" y="1384.60" angle="162.39" type="DEFAULT_VEHTYPE" speed="5.62" pos="22.94" lane="448629483#0_0" slope="0.00"/>
        <vehicle id="8" x="6918.82" y="1443.54" angle="354.55" type="DEFAULT_VEHTYPE" speed="3.18" pos="9.91" lane="-506875003#9_0" slope="0.00"/>
    </timestep>
    <timestep time="22.00">
        <vehicle id="2" x="6818.00" y="857.42" angle="352.76" type="DEFAULT_VEHTYPE" speed="11.36" pos="9.33" lane="485345402#4_0" slope="0.00"/>
        <vehicle id="3" x="6952.70" y="875.95" angle="272.60" type="DEFAULT_VEHTYPE" speed="5.43" pos="4.22" lane=":423733356_0_0" slope="0.00"/>
        <vehicle id="4" x="7138.99" y="1068.07" angle="353.55" type="DEFAULT_VEHTYPE" speed="12.60" pos="35.36" lane="433013219#2_1" slope="0.00"/>
        <vehicle id="5" x="6907.78" y="1564.49" angle="357.22" type="DEFAULT_VEHTYPE" speed="7.10" pos="1.61" lane=":411824449_0_0" slope="0.00"/>
        <vehicle id="6" x="7139.49" y="1263.18" angle="276.36" type="DEFAULT_VEHTYPE" speed="11.41" pos="16.08" lane=":1333387625_0_0" slope="0.00"/>
        <vehicle id="7" x="6672.70" y="1378.96" angle="162.39" type="DEFAULT_VEHTYPE" speed="5.92" pos="28.85" lane="448629483#0_0" slope="0.00"/>
        <vehicle id="8" x="6918.28" y="1449.22" angle="354.55" type="DEFAULT_VEHTYPE" speed="5.71" pos="15.61" lane="-506875003#9_0" slope="0.00"/>
        <vehicle id="9" x="6872.99" y="1699.76" angle="162.79" type="DEFAULT_VEHTYPE" speed="0.00" pos="5.10" lane="506875003#1_0" slope="0.00"/>
    </timestep>
    <timestep time="23.00">
        <vehicle id="2" x="6816.57" y="868.71" angle="352.73" type="DEFAULT_VEHTYPE" speed="11.38" pos="9.28" lane=":4834796692_0_0" slope="0.00"/>
        <vehicle id="3" x="6949.57" y="881.04" angle="333.13" type="DEFAULT_VEHTYPE" speed="6.17" pos="1.73" lane="738782259#3_0" slope="0.00"/>
        <vehicle id="4" x="7137.28" y="1083.14" angle="353.55" type="DEFAULT_VEHTYPE" speed="15.16" pos="50.52" lane="433013219#2_1" slope="0.00"/>
        <vehicle id="5" x="6911.61" y="1569.01" angle="49.28" type="DEFAULT_VEHTYPE" speed="6.48" pos="8.10" lane=":411824449_0_0" slope="0.00"/>
        <vehicle id="6" x="7132.51" y="1264.90" angle="285.05" type="DEFAULT_VEHTYPE" speed="7.31" pos="23.39" lane=":1333387625_0_0" slope="0.00"/>
        <vehicle id="7" x="6674.41" y="1373.57" angle="162.39" type="DEFAULT_VEHTYPE" speed="5.66" pos="34.51" lane="448629483#0_0" slope="0.00"/>
        <vehicle id="8" x="6917.65" y="1455.80" angle="354.55" type="DEFAULT_VEHTYPE" speed="6.61" pos="22.22" lane="-506875003#9_0" slope="0.00"/>
        <vehicle id="9" x="6873.40" y="1698.44" angle="162.79" type="DEFAULT_VEHTYPE" speed="1.38" pos="6.48" lane="506875003#1_0" slope="0.00"/>
    </timestep>
    <timestep time="24.00">
        <vehicle id="10" x="6777.61" y="1415.89" angle="87.32" type="DEFAULT_VEHTYPE" speed="0.00" pos="2.03" lane="5047747#2_0" slope="0.00"/>
        <vehicle id="2" x="6815.09" y="880.29" angle="352.77" type="DEFAULT_VEHTYPE" speed="11.67" pos="6.49" lane="485345402#5_0" slope="0.00"/>
        <vehicle id="3" x="6947.35" y="888.31" angle="343.02" type="DEFAULT_VEHTYPE" speed="7.60" pos="9.33" lane="738782259#3_0" slope="0.00"/>
        <vehicle id="4" x="7135.47" y="1099.19" angle="353.55" type="DEFAULT_VEHTYPE" speed="16.15" pos="66.67" lane="433013219#2_1" slope="0.00"/>
        <vehicle id="5" x="6918.47" y="1569.96" angle="83.50" type="DEFAULT_VEHTYPE" speed="6.93" pos="5.74" lane="72879917#0_0" slope="0.00"/>
        <vehicle id="6" x="7123.92" y="1267.83" angle="289.14" type="DEFAULT_VEHTYPE" speed="8.53" pos="6.94" lane=":1854989212_0_3" slope="0.00"/>
        <vehicle id="7" x="6675.84" y="1369.04" angle="162.39" type="DEFAULT_VEHTYPE" speed="4.74" pos="39.25" lane="448629483#0_0" slope="0.00"/>
        <vehicle id="8" x="6916.71" y="1459.37" angle="347.54" type="DEFAULT_VEHTYPE" speed="3.82" pos="1.07" lane=":411824452_3_0" slope="0.00"/>
        <vehicle id="9" x="6874.55" y="1694.72" angle="162.79" type="DEFAULT_VEHTYPE" speed="3.90" pos="10.37" lane="506875003#1_0" slope="0.00"/>
    </timestep>
    <timestep time="25.00">
        <vehicle id="10" x="6779.62" y="1416.29" angle="83.77" type="DEFAULT_VEHTYPE" speed="2.04" pos="2.04" lane=":9465977117_3_0" slope="0.00"/>
        <vehicle id="2" x="6813.64" y="891.75" angle="352.77" type="DEFAULT_VEHTYPE" speed="11.55" pos="18.04" lane="485345402#5_0" slope="0.00"/>
        <vehicle id="3" x="6944.42" y="897.91" angle="343.02" type="DEFAULT_VEHTYPE" speed="10.03" pos="19.36" lane="738782259#3_0" slope="0.00"/>
        <vehicle id="4" x="7136.86" y="1115.28" angle="353.52" type="DEFAULT_VEHTYPE" speed="15.83" pos="3.42" lane=":864985240_1_0" slope="0.00"/>
        <vehicle id="5" x="6926.24" y="1570.85" angle="83.50" type="DEFAULT_VEHTYPE" speed="7.82" pos="13.56" lane="72879917#0_0" slope="0.00"/>
        <vehicle id="6" x="7115.26" y="1272.56" angle="306.33" type="DEFAULT_VEHTYPE" speed="10.15" pos="0.43" lane="1279673595#0_3" slope="0.00"/>
        <vehicle id="7" x="6677.61" y="1363.50" angle="162.29" type="DEFAULT_VEHTYPE" speed="5.82" pos="3.44" lane=":4622308422_3_0" slope="0.00"/>
        <vehicle id="8" x="6914.37" y="1458.57" angle="283.18" type="DEFAULT_VEHTYPE" speed="3.23" pos="2.86" lane=":411824452_6_0" slope="0.00"/>
        <vehicle id="9" x="6876.40" y="1688.75" angle="162.79" type="DEFAULT_VEHTYPE" speed="6.25" pos="16.62" lane="506875003#1_0" slope="0.00"/>
    </timestep>
    <timestep time="26.00">
        <vehicle id="10" x="6782.24" y="1419.19" angle="48.17" type="DEFAULT_VEHTYPE" speed="4.19" pos="6.24" lane=":9465977117_3_0" slope="0.00"/>
        <vehicle id="11" x="6639.33" y="1170.35" angle="355.51" type="DEFAULT_VEHTYPE" speed="0.00" pos="5.10" lane="1279826715_0" slope="0.00"/>
        <vehicle id="2" x="6812.25" y="902.73" angle="352.79" type="DEFAULT_VEHTYPE" speed="11.07" pos="29.11" lane="485345402#5_0" slope="0.00"/>
        <vehicle id="3" x="6941.01" y="909.12" angle="343.11" type="DEFAULT_VEHTYPE" speed="11.72" pos="31.08" lane="738782259#3_0" slope="0.00"/>
        <vehicle id="4" x="7131.84" y="1131.04" angle="353.47" type="DEFAULT_VEHTYPE" speed="16.24" pos="9.04" lane="433013219#3_1" slope="0.00"/>
        <vehicle id="5" x="6934.25" y="1571.76" angle="83.50" type="DEFAULT_VEHTYPE" speed="8.06" pos="21.62" lane="72879917#0_0" slope="0.00"/>
        <vehicle id="6" x="7113.97" y="1284.44" angle="353.79" type="DEFAULT_VEHTYPE" speed="11.94" pos="12.37" lane="1279673595#0_3" slope="0.00"/>
        <vehicle id="7" x="6679.66" y="1357.09" angle="162.25" type="DEFAULT_VEHTYPE" speed="6.74" pos="10.18" lane=":4622308422_3_0" slope="0.00"/>
        <vehicle id="8" x="6914.47" y="1455.44" angle="193.29" type="DEFAULT_VEHTYPE" speed="3.18" pos="2.81" lane="506875003#9_0" slope="0.00"/>
        <vehicle id="9" x="6878.90" y="1680.67" angle="162.79" type="DEFAULT_VEHTYPE" speed="8.46" pos="25.08" lane="506875003#1_0" slope="0.00"/>
    </timestep>
    <timestep time="27.00">
        <vehicle id="10" x="6781.49" y="1423.91" angle="351.87" type="DEFAULT_VEHTYPE" speed="4.82" pos="2.00" lane="468748353#0_0" slope="0.00"/>
        <vehicle id="11" x="6639.22" y="1171.72" angle="355.51" type="DEFAULT_VEHTYPE" speed="1.37" pos="6.47" lane="1279826715_0" slope="0.00"/>
        <vehicle id="2" x="6810.83" y="913.89" angle="352.77" type="DEFAULT_VEHTYPE" speed="11.25" pos="10.13" lane=":339427089_1_0" slope="0.00"/>
        <vehicle id="3" x="6937.52" y="920.52" angle="343.04" type="DEFAULT_VEHTYPE" speed="11.93" pos="3.15" lane=":8176219335_3_0" slope="0.00"/>
        <vehicle id="4" x="7130.07" y="1146.55" angle="353.47" type="DEFAULT_VEHTYPE" speed="15.60" pos="24.64" lane="433013219#3_1" slope="0.00"/>
        <vehicle id="5" x="6942.99" y="1572.75" angle="83.50" type="DEFAULT_VEHTYPE" speed="8.80" pos="30.42" lane="72879917#0_0" slope="0.00"/>
        <vehicle id="6" x="7112.52" y="1298.45" angle="354.26" type="DEFAULT_VEHTYPE" speed="14.05" pos="5.79" lane="1279673595#1_3" slope="0.00"/>
        <vehicle id="7" x="6681.64" y="1350.92" angle="162.17" type="DEFAULT_VEHTYPE" speed="6.48" pos="2.03" lane="448629483#1_0" slope="0.00"/>
        <vehicle id="8" x="6914.99" y="1449.90" angle="174.55" type="DEFAULT_VEHTYPE" speed="5.57" pos="8.37" lane="506875003#9_0" slope="0.00"/>
        <vehicle id="9" x="6881.81" y="1671.29" angle="162.79" type="DEFAULT_VEHTYPE" speed="9.82" pos="34.90" lane="506875003#1_0" slope="0.00"/>
    </timestep>
    <timestep time="28.00">
        <vehicle id="10" x="6779.74" y="1430.01" angle="343.83" type="DEFAULT_VEHTYPE" speed="6.35" pos="4.92" lane=":9465977023_0_0" slope="0.00"/>
        <vehicle id="11" x="6638.95" y="1175.18" angle="355.51" type="DEFAULT_VEHTYPE" speed="3.47" pos="9.94" lane="1279826715_0" slope="0.00"/>
        <vehicle id="2" x="6809.52" y="924.30" angle="352.78" type="DEFAULT_VEHTYPE" speed="10.49" pos="8.79" lane="485345402#6_0" slope="0.00"/>
        <vehicle id="3" x="6934.10" y="931.77" angle="343.03" type="DEFAULT_VEHTYPE" speed="11.76" pos="8.61" lane="738782259#5_0" slope="0.00"/>
        <vehicle id="4" x="7131.54" y="1162.59" angle="354.51" type="DEFAULT_VEHTYPE" speed="15.99" pos="2.32" lane=":1854989191_0_0" slope="0.00"/>
        <vehicle id="5" x="6950.77" y="1573.64" angle="83.50" type="DEFAULT_VEHTYPE" speed="7.82" pos="38.25" lane="72879917#0_0" slope="0.00"/>
        <vehicle id="6" x="7110.83" y="1314.35" angle="353.89" type="DEFAULT_VEHTYPE" speed="16.04" pos="0.10" lane="1279673595#2_3" slope="0.00"/>
        <vehicle id="7" x="6683.40" y="1345.49" angle="162.06" type="DEFAULT_VEHTYPE" speed="5.71" pos="7.73" lane="448629483#1_0" slope="0.00"/>
        <vehicle id="8" x="6915.65" y="1443.03" angle="174.55" type="DEFAULT_VEHTYPE" speed="6.91" pos="15.28" lane="506875003#9_0" slope="0.00"/>
        <vehicle id="9" x="6885.37" y="1659.79" angle="162.79" type="DEFAULT_VEHTYPE" speed="12.04" pos="46.94" lane="506875003#1_0" slope="0.00"/>
    </timestep>
    <timestep time="29.00">
        <vehicle id="10" x="6777.36" y="1437.75" angle="342.87" type="DEFAULT_VEHTYPE" speed="8.10" pos="7.52" lane="468748353#1_0" slope="0.00"/>
        <vehicle id="11" x="6638.51" y="1180.77" angle="355.51" type="DEFAULT_VEHTYPE" speed="5.60" pos="15.54" lane="1279826715_0" slope="0.00"/>
        <vehicle id="12" x="7386.57" y="1248.77" angle="268.33" type="DEFAULT_VEHTYPE" speed="0.00" pos="0.20" lane="892680233#0_0" slope="0.00"/>
        <vehicle id="2" x="6808.05" y="935.90" angle="352.78" type="DEFAULT_VEHTYPE" speed="11.69" pos="20.48" lane="485345402#6_0" slope="0.00"/>
        <vehicle id="3" x="6930.66" y="943.03" angle="343.03" type="DEFAULT_VEHTYPE" speed="11.78" pos="20.39" lane="738782259#5_0" slope="0.00"/>
        <vehicle id="4" x="7131.16" y="1175.38" angle="13.84" type="DEFAULT_VEHTYPE" speed="12.71" pos="8.87" lane="1231322123_1" slope="0.00"/>
        <vehicle id="5" x="6959.64" y="1574.65" angle="83.50" type="DEFAULT_VEHTYPE" speed="8.93" pos="47.18" lane="72879917#0_0" slope="0.00"/>
        <vehicle id="6" x="7109.05" y="1330.36" angle="353.66" type="DEFAULT_VEHTYPE" speed="16.11" pos="16.21" lane="1279673595#2_3" slope="0.00"/>
        <vehicle id="7" x="6685.27" y="1339.79" angle="161.85" type="DEFAULT_VEHTYPE" speed="6.00" pos="5.27" lane=":4622308425_2_0" slope="0.00"/>
        <vehicle id="8" x="6916.48" y="1434.37" angle="174.55" type="DEFAULT_VEHTYPE" speed="8.69" pos="23.97" lane="506875003#9_0" slope="0.00"/>
        <vehicle id="9" x="6888.73" y="1648.89" angle="162.90" type="DEFAULT_VEHTYPE" speed="11.41" pos="3.26" lane=":411824446_5_0" slope="0.00"/>
    </timestep>
    <timestep time="30.00">
        <vehicle id="10" x="6774.41" y="1447.32" angle="342.87" type="DEFAULT_VEHTYPE" speed="10.02" pos="17.54" lane="468748353#1_0" slope="0.00"/>
        <vehicle id="11" x="6637.97" y="1187.69" angle="355.51" type="DEFAULT_VEHTYPE" speed="6.94" pos="22.49" lane="1279826715_0" slope="0.00"/>
        <vehicle id="12" x="7384.14" y="1248.70" angle="268.31" type="DEFAULT_VEHTYPE" speed="2.43" pos="2.43" lane=":11007256393_0_0" slope="0.00"/>
        <vehicle id="2" x="6806.63" y="947.06" angle="352.81" type="DEFAULT_VEHTYPE" speed="11.25" pos="3.72" lane=":4781193238_0_0" slope="0.00"/>
        <vehicle id="3" x="6926.88" y="955.38" angle="343.00" type="DEFAULT_VEHTYPE" speed="12.92" pos="0.37" lane="738782259#6_0" slope="0.00"/>
        <vehicle id="4" x="7133.13" y="1183.35" angle="13.84" type="DEFAULT_VEHTYPE" speed="8.21" pos="17.08" lane="1231322123_1" slope="0.00"/>
        <vehicle id="5" x="6968.53" y="1575.66" angle="83.49" type="DEFAULT_VEHTYPE" speed="8.95" pos="5.25" lane=":4456222497_0_0" slope="0.00"/>
        <vehicle id="6" x="7107.26" y="1346.50" angle="353.66" type="DEFAULT_VEHTYPE" speed="16.24" pos="32.45" lane="1279673595#2_3" slope="0.00"/>
        <vehicle id="7" x="6687.03" y="1334.42" angle="161.78" type="DEFAULT_VEHTYPE" speed="5.65" pos="1.50" lane="448629483#2_0" slope="0.00"/>
        <vehicle id="8" x="6916.99" y="1428.52" angle="175.08" type="DEFAULT_VEHTYPE" speed="5.87" pos="4.87" lane=":9465977025_1_0" slope="0.00"/>
        <vehicle id="9" x="6892.12" y="1637.81" angle="163.01" type="DEFAULT_VEHTYPE" speed="11.59" pos="2.62" lane="506875003#2_0" slope="0.00"/>
    </timestep>
    <timestep time="31.00">
        <vehicle id="10" x="6770.96" y="1458.54" angle="342.87" type="DEFAULT_VEHTYPE" speed="11.74" pos="29.28" lane="468748353#1_0" slope="0.00"/>
        <vehicle id="11" x="6637.44" y="1194.43" angle="355.51" type="DEFAULT_VEHTYPE" speed="6.77" pos="29.25" lane="1279826715_0" slope="0.00"/>
        <vehicle id="12" x="7379.43" y="1248.56" angle="268.33" type="DEFAULT_VEHTYPE" speed="4.72" pos="3.01" lane="892680233#1_0" slope="0.00"/>
        <vehicle id="13" x="6957.97" y="1163.65" angle="259.03" type="DEFAULT_VEHTYPE" speed="0.00" pos="5.10" lane="-444694995#0_0" slope="0.00"/>
        <vehicle id="2" x="6805.21" y="958.20" angle="352.76" type="DEFAULT_VEHTYPE" speed="11.23" pos="3.38" lane="485345402#8_0" slope="0.00"/>
        <vehicle id="3" x="6923.30" y="967.13" angle="343.03" type="DEFAULT_VEHTYPE" speed="12.28" pos="12.65" lane="738782259#6_0" slope="0.00"/>
        <vehicle id="4" x="7134.82" y="1193.42" angle="5.43" type="DEFAULT_VEHTYPE" speed="10.25" pos="5.34" lane=":26839944_0_1" slope="0.00"/>
        <vehicle id="5" x="6976.90" y="1576.62" angle="83.50" type="DEFAULT_VEHTYPE" speed="8.42" pos="4.14" lane="72879917#1_0" slope="0.00"/>
        <vehicle id="6" x="7105.48" y="1362.57" angle="353.73" type="DEFAULT_VEHTYPE" speed="16.16" pos="0.56" lane=":5722770076_0_3" slope="0.00"/>
        <vehicle id="7" x="6689.20" y="1327.90" angle="161.62" type="DEFAULT_VEHTYPE" speed="6.87" pos="8.38" lane="448629483#2_0" slope="0.00"/>
        <vehicle id="8" x="6920.79" y="1425.39" angle="125.03" type="DEFAULT_VEHTYPE" speed="5.51" pos="5.01" lane=":411824431_2_0" slope="0.00"/>
        <vehicle id="9" x="6895.39" y="1627.08" angle="163.05" type="DEFAULT_VEHTYPE" speed="11.21" pos="13.84" lane="506875003#2_0" slope="0.00"/>
    </timestep>
    <timestep time="32.00">
        <vehicle id="10" x="6767.29" y="1470.41" angle="342.87" type="DEFAULT_VEHTYPE" speed="12.43" pos="41.71" lane="468748353#1_0" slope="0.00"/>
        <vehicle id="11" x="6637.18" y="1199.44" angle="357.08" type="DEFAULT_VEHTYPE" speed="5.02" pos="0.96" lane=":339426840_0_0" slope="0.00"/>
        <vehicle id="12" x="7373.41" y="1248.39" angle="268.35" type="DEFAULT_VEHTYPE" speed="6.02" pos="4.58" lane=":11834417342_1_0" slope="0.00"/>
        <vehicle id="13" x="6955.84" y="1163.24" angle="259.03" type="DEFAULT_VEHTYPE" speed="2.18" pos="7.28" lane="-444694995#0_0" slope="0.00"/>
        <vehicle id="2" x="6803.86" y="968.84" angle="352.76" type="DEFAULT_VEHTYPE" speed="10.73" pos="14.10" lane="485345402#8_0" slope="0.00"/>
        <vehicle id="3" x="6919.84" y="978.46" angle="343.03" type="DEFAULT_VEHTYPE" speed="11.85" pos="24.50" lane="738782259#6_0" slope="0.00"/>
        <vehicle id="4" x="7141.58" y="1196.05" angle="38.09" type="DEFAULT_VEHTYPE" speed="7.64" pos="2.64" lane=":1921563299_3_0" slope="0.00"/>
        <vehicle id="5" x="6984.61" y="1577.50" angle="83.51" type="DEFAULT_VEHTYPE" speed="7.76" pos="11.90" lane="72879917#1_0" slope="0.00"/>
        <vehicle id="6" x="7103.63" y="1379.53" angle="353.81" type="DEFAULT_VEHTYPE" speed="17.06" pos="8.14" lane="1279673595#4_3" slope="0.00"/>
        <vehicle id="7" x="6690.87" y="1322.88" angle="161.62" type="DEFAULT_VEHTYPE" speed="5.29" pos="13.66" lane="448629483#2_0" slope="0.00"/>
        <vehicle id="8" x="6927.11" y="1425.70" angle="86.56" type="DEFAULT_VEHTYPE" speed="6.34" pos="3.57" lane="1249110834#3_0" slope="0.00"/>
        <vehicle id="9" x="6898.48" y="1616.36" angle="165.06" type="DEFAULT_VEHTYPE" speed="11.16" pos="25.00" lane="506875003#2_0" slope="0.00"/>
    </timestep>
    <timestep time="33.00">
        <vehicle id="10" x="6763.51" y="1482.71" angle="342.96" type="DEFAULT_VEHTYPE" speed="12.87" pos="3.46" lane=":411824399_1_0" slope="0.00"/>
        <vehicle id="11" x="6638.97" y="1203.27" angle="22.77" type="DEFAULT_VEHTYPE" speed="4.47" pos="5.44" lane=":339426840_0_0" slope="0.00"/>
        <vehicle id="12" x="7365.15" y="1248.15" angle="268.34" type="DEFAULT_VEHTYPE" speed="8.27" pos="4.87" lane="892680233#2_0" slope="0.00"/>
        <vehicle id="13" x="6951.49" y="1162.39" angle="259.03" type="DEFAULT_VEHTYPE" speed="4.43" pos="11.70" lane="-444694995#0_0" slope="0.00"/>
        <vehicle id="14" x="6865.63" y="1148.72" angle="162.58" type="DEFAULT_VEHTYPE" speed="0.00" pos="0.35" lane="51260925#2_0" slope="0.00"/>
        <vehicle id="2" x="6802.50" y="979.57" angle="352.76" type="DEFAULT_VEHTYPE" speed="10.82" pos="24.93" lane="485345402#8_0" slope="0.00"/>
        <vehicle id="3" x="6916.16" y="990.52" angle="343.05" type="DEFAULT_VEHTYPE" speed="12.61" pos="4.46" lane=":4826872897_0_0" slope="0.00"/>
        <vehicle id="4" x="7147.46" y="1200.81" angle="48.45" type="DEFAULT_VEHTYPE" speed="7.57" pos="10.20" lane=":1921563299_3_0" slope="0.00"/>
        <vehicle id="5" x="6993.03" y="1578.45" angle="83.51" type="DEFAULT_VEHTYPE" speed="8.48" pos="20.38" lane="72879917#1_0" slope="0.00"/>
        <vehicle id="6" x="7101.87" y="1395.80" angle="353.81" type="DEFAULT_VEHTYPE" speed="16.37" pos="24.51" lane="1279673595#4_3" slope="0.00"/>
        <vehicle id="7" x="6692.70" y="1318.13" angle="158.91" type="DEFAULT_VEHTYPE" speed="5.10" pos="2.30" lane=":4456246846_1_0" slope="0.00"/>
        <vehicle id="8" x="6935.87" y="1426.40" angle="85.43" type="DEFAULT_VEHTYPE" speed="8.78" pos="12.36" lane="1249110834#3_0" slope="0.00"/>